
                                 *****************
                                 * O   R   C   A *
                                 *****************

                                            #,                                       
                                            ###                                      
                                            ####                                     
                                            #####                                    
                                            ######                                   
                                           ########,                                 
                                     ,,################,,,,,                         
                               ,,#################################,,                 
                          ,,##########################################,,             
                       ,#########################################, ''#####,          
                    ,#############################################,,   '####,        
                  ,##################################################,,,,####,       
                ,###########''''           ''''###############################       
              ,#####''   ,,,,##########,,,,          '''####'''          '####       
            ,##' ,,,,###########################,,,                        '##       
           ' ,,###''''                  '''############,,,                           
         ,,##''                                '''############,,,,        ,,,,,,###''
      ,#''                                            '''#######################'''  
     '                                                          ''''####''''         
             ,#######,   #######,   ,#######,      ##                                
            ,#'     '#,  ##    ##  ,#'     '#,    #''#        ,####,   ,####,        
            ##       ##  ##   ,#'  ##            #'  '#       #'       #'  '#        
            ##       ##  #######   ##           ,######,      #####,   #    #        
            '#,     ,#'  ##    ##  '#,     ,#' ,#      #,     #,   #   #,  ,#        
             '#######'   ##     ##  '#######'  #'      '#     '####' # '####'        



                #########################################################
                #                        -***-                          #
                #          Department of theory and spectroscopy        #
                #                                                       #
                #                      Frank Neese                      #
                #                                                       #
                #     Directorship, Architecture, Infrastructure        #
                #                    SHARK, DRIVERS                     #
                #        Core code/Algorithms in most modules           #
                #                                                       #
                #        Max Planck Institute fuer Kohlenforschung      #
                #                Kaiser Wilhelm Platz 1                 #
                #                 D-45470 Muelheim/Ruhr                 #
                #                      Germany                          #
                #                                                       #
                #                  All rights reserved                  #
                #                        -***-                          #
                #########################################################


                         Program Version 6.0.0  -   RELEASE  -


 With contributions from (in alphabetic order):
   Daniel Aravena         : Magnetic Suceptibility
   Michael Atanasov       : Ab Initio Ligand Field Theory (pilot matlab implementation)
   Alexander A. Auer      : GIAO ZORA, VPT2 properties, NMR spectrum
   Ute Becker             : All parallelization in ORCA, NUMFREQ, NUMCALC
   Giovanni Bistoni       : ED, misc. LED, open-shell LED, HFLD
   Martin Brehm           : Molecular dynamics
   Dmytro Bykov           : pre 5.0 version of the SCF Hessian
   Marcos Casanova-Páez   : Triplet and SCS-CIS(D). UHF-(DLPNO)-IP/EA/STEOM-CCSD. UHF-CVS-IP/STEOM-CCSD
   Vijay G. Chilkuri      : MRCI spin determinant printing, contributions to CSF-ICE
   Pauline Colinet        : FMM embedding
   Dipayan Datta          : RHF DLPNO-CCSD density
   Achintya Kumar Dutta   : EOM-CC, STEOM-CC
   Nicolas Foglia         : Exact transition moments, OPA infrastructure, MCD improvements
   Dmitry Ganyushin       : Spin-Orbit,Spin-Spin,Magnetic field MRCI
   Miquel Garcia          : C-PCM and meta-GGA Hessian, CCSD/C-PCM, Gaussian charge scheme
   Tiago L. C. Gouveia    : GS-ROHF, GS-ROCIS
   Yang Guo               : DLPNO-NEVPT2, F12-NEVPT2, CIM, IAO-localization
   Andreas Hansen         : Spin unrestricted coupled pair/coupled cluster methods
   Ingolf Harden          : AUTO-CI MPn and infrastructure 
   Benjamin Helmich-Paris : MC-RPA, TRAH-(SCF,CASSCF), AVAS, COSX integrals, SCF dyn. polar.
   Lee Huntington         : MR-EOM, pCC
   Robert Izsak           : Overlap fitted RIJCOSX, COSX-SCS-MP3, EOM
   Riya Kayal             : Wick's Theorem for AUTO-CI, AUTO-CI UHF-CCSDT
   Emily Kempfer          : AUTO-CI, RHF CISDT and CCSDT
   Christian Kollmar      : KDIIS, OOCD, Brueckner-CCSD(T), CCSD density, CASPT2, CASPT2-K, improved NEVPT2
   Axel Koslowski         : Symmetry handling
   Simone Kossmann        : Meta GGA functionals, TD-DFT gradient, OOMP2, (MP2 Hessian; deprecated post 5.0)
   Lucas Lang             : DCDCAS
   Marvin Lechner         : AUTO-CI (C++ implementation), FIC-MRCC
   Spencer Leger          : CASSCF response
   Dagmar Lenk            : GEPOL surface, SMD, ORCA-2-JSON
   Dimitrios Liakos       : Extrapolation schemes; Compound Job, initial MDCI parallelization
   Dimitrios Manganas     : Further ROCIS development; embedding schemes. LFT, Crystal Embedding
   Dimitrios Pantazis     : SARC Basis sets
   Anastasios Papadopoulos: AUTO-CI, single reference methods and gradients
   Taras Petrenko         : pre 6.0 DFT Hessian and TD-DFT gradient, (ASA, deprecated), ECA, 1-Electron XAS/XES, NRVS
   Peter Pinski           : DLPNO-MP2, DLPNO-MP2 Gradient
   Christoph Reimann      : Effective Core Potentials
   Marius Retegan         : Local ZFS, SOC
   Christoph Riplinger    : Optimizer, TS searches, QM/MM, DLPNO-CCSD(T), (RO)-DLPNO pert. Triples
   Michael Roemelt        : Original ROCIS implementation
   Masaaki Saitow         : Open-shell DLPNO-CCSD energy and density
   Barbara Sandhoefer     : DKH picture change effects
   Kantharuban Sivalingam : CASSCF convergence/infrastructure, NEVPT2 and variants, FIC-MRCI
   Bernardo de Souza      : ESD, SOC TD-DFT
   Georgi Stoychev        : AutoAux, RI-MP2 NMR, DLPNO-MP2 response, X2C
   Van Anh Tran           : RI-MP2 g-tensors
   Willem Van den Heuvel  : Paramagnetic NMR
   Zikuan Wang            : NOTCH, Electric field optimization 
   Frank Wennmohs         : Technical directorship and infrastructure
   Hang Xu                : AUTO-CI-Response properties 


 We gratefully acknowledge several colleagues who have allowed us to
 interface, adapt or use parts of their codes:
   Stefan Grimme, W. Hujo, H. Kruse, P. Pracht,  : VdW corrections, initial TS optimization,
                  C. Bannwarth, S. Ehlert,         DFT functionals, gCP, sTDA/sTD-DF
                  L. Wittmann, M. Mueller
   Ed Valeev, F. Pavosevic, A. Kumar             : LibInt (2-el integral package), F12 methods
   Garnet Chan, S. Sharma, J. Yang, R. Olivares  : DMRG
   Ulf Ekstrom                                   : XCFun DFT Library
   Mihaly Kallay                                 : mrcc  (arbitrary order and MRCC methods)
   Frank Weinhold                                : gennbo (NPA and NBO analysis)
   Simon Mueller                                 : openCOSMO-RS
   Christopher J. Cramer and Donald G. Truhlar   : smd solvation model
   Lars Goerigk                                  : TD-DFT with DH, B97 family of functionals
   V. Asgeirsson, H. Jonsson                     : NEB implementation
   FAccTs GmbH                                   : IRC, NEB, NEB-TS, DLPNO-Multilevel, CI-OPT
                                                   MM, QMMM, 2- and 3-layer-ONIOM, Crystal-QMMM,
                                                   LR-CPCM, SF, NACMEs, symmetry and pop. for TD-DFT,
                                                   nearIR, NL-DFT gradient (VV10), updates on ESD,
                                                   ML-optimized integration grids, MBIS, APM,
                                                   GOAT, DOCKER, SOLVATOR, interface openCOSMO-RS
   S Lehtola, MJT Oliveira, MAL Marques          : LibXC Library
   Liviu Ungur et al                             : ANISO software


 Your calculation uses the libint2 library for the computation of 2-el integrals
 For citations please refer to: http://libint.valeyev.net

 Your ORCA version has been built with support for libXC version: 6.2.2
 For citations please refer to: https://libxc.gitlab.io

 This ORCA versions uses:
   CBLAS   interface :  Fast vector & matrix operations
   LAPACKE interface :  Fast linear algebra routines
   SCALAPACK package :  Parallel linear algebra routines
   Shared memory     :  Shared parallel matrices
   BLAS/LAPACK       :  OpenBLAS 0.3.27  USE64BITINT DYNAMIC_ARCH NO_AFFINITY Haswell SINGLE_THREADED
        Core in use  :  Haswell
   Copyright (c) 2011-2014, The OpenBLAS Project




***************************************
The coordinates will be read from file: aspirin_opt.xyz
***************************************


Warning: RI is on but no J-basis has been assigned. Assigning Def2/J (nothing to worry about!)
================================================================================

----- Orbital basis set information -----
Your calculation utilizes the basis: def2-SVP
   F. Weigend and R. Ahlrichs, Phys. Chem. Chem. Phys. 7, 3297 (2005).

----- AuxJ basis set information -----
Your calculation utilizes the auxiliary basis: def2/J
   F. Weigend, Phys. Chem. Chem. Phys. 8, 1057 (2006).

================================================================================
                                        WARNINGS
                       Please study these warnings very carefully!
================================================================================


================================================================================
                                       INPUT FILE
================================================================================
NAME = /DiscorcaJobs/Orca/Job/aspirin_ftir/aspirin_ftir.inp
|  1> !FREQ PBE def2-SVP PAL4
|  2> 
|  3> *xyzfile 0 1 aspirin_opt.xyz
|  4> 
|  5>                          ****END OF INPUT****
================================================================================

                       ****************************
                       * Single Point Calculation *
                       ****************************

---------------------------------
CARTESIAN COORDINATES (ANGSTROEM)
---------------------------------
  C     -3.618586    1.334100   -0.152801
  C     -3.609211   -0.001311    0.280908
  H      2.544470   -2.275445   -0.614782
  C      2.095561   -1.537409    0.072243
  H     -4.555846   -0.547511    0.410447
  C     -2.393126   -0.648252    0.540349
  H     -2.419445    3.057861   -0.676584
  H     -2.361980   -1.693655    0.879032
  C     -1.180934    0.035389    0.368344
  O      0.198964   -1.411448   -1.449993
  H      2.111817   -1.902078    1.116508
  C     -1.168837    1.388753   -0.050455
  C      0.698915   -1.210568   -0.371995
  O      0.003180   -0.600051    0.677836
  C     -2.406560    2.018688   -0.308449
  C      0.132233    2.125626   -0.224620
  H     -4.569305    1.840549   -0.375417
  H      2.678040   -0.594147    0.033484
  O      0.076246    3.466236    0.012405
  O      1.179773    1.611829   -0.558802
  H     -0.797829    3.684572    0.392183

----------------------------
CARTESIAN COORDINATES (A.U.)
----------------------------
  NO LB      ZA    FRAG     MASS         X           Y           Z
   0 C     6.0000    0    12.011   -6.838137    2.521084   -0.288752
   1 C     6.0000    0    12.011   -6.820421   -0.002478    0.530839
   2 H     1.0000    0     1.008    4.808352   -4.299967   -1.161769
   3 C     6.0000    0    12.011    3.960036   -2.905281    0.136520
   4 H     1.0000    0     1.008   -8.609302   -1.034646    0.775632
   5 C     6.0000    0    12.011   -4.522353   -1.225019    1.021112
   6 H     1.0000    0     1.008   -4.572089    5.778519   -1.278559
   7 H     1.0000    0     1.008   -4.463495   -3.200544    1.661131
   8 C     6.0000    0    12.011   -2.231641    0.066876    0.696068
   9 O     8.0000    0    15.999    0.375987   -2.667250   -2.740089
  10 H     1.0000    0     1.008    3.990755   -3.594406    2.109894
  11 C     6.0000    0    12.011   -2.208781    2.624363   -0.095346
  12 C     6.0000    0    12.011    1.320757   -2.287642   -0.702969
  13 O     8.0000    0    15.999    0.006010   -1.133932    1.280924
  14 C     6.0000    0    12.011   -4.547739    3.814767   -0.582885
  15 C     6.0000    0    12.011    0.249884    4.016852   -0.424470
  16 H     1.0000    0     1.008   -8.634735    3.478134   -0.709435
  17 H     1.0000    0     1.008    5.060763   -1.122775    0.063275
  18 O     8.0000    0    15.999    0.144085    6.550237    0.023441
  19 O     8.0000    0    15.999    2.229448    3.045915   -1.055983
  20 H     1.0000    0     1.008   -1.507679    6.962833    0.741118

--------------------------------
INTERNAL COORDINATES (ANGSTROEM)
--------------------------------
 C      0   0   0     0.000000000000     0.00000000     0.00000000
 C      1   0   0     1.404106671494     0.00000000     0.00000000
 H      2   1   0     6.621309560966   106.92229325     0.00000000
 C      3   2   1     1.103729997687    46.22258554    69.22414355
 H      2   1   3     1.100560175318   120.17386291   196.94583640
 C      2   1   3     1.401679787630   120.12786737    16.42193366
 H      1   2   3     2.164171345501   145.95409447   344.17437479
 H      6   2   1     1.099337888385   121.36623058   180.10486549
 C      6   2   1     1.402270259678   120.15028111     0.00000000
 O      4   3   2     2.435189578367    87.83686745   341.22950962
 H      4   3   2     1.106226260432   111.17308458   111.71132445
 C      9   6   2     1.416732605935   120.62118319     0.86572940
 C     10   4   3     1.205148027947    29.11793240   163.62636625
 O      9   6   2     1.379020026036   119.34683759   177.50333462
 C      7   1   2     1.102528795592    34.40488852   357.33454565
 C     12   9   6     1.505356444909   120.60969729   179.51803814
 H      1   2   3     1.099961166929   120.40993942   162.45469009
 H      4   3   2     1.109291519737   109.46788524   230.69042439
 O     16  12   9     1.362552473319   115.21260551   210.45780076
 O     16  12   9     1.213674391574   124.79314585    30.94383295
 H     19  16  12     0.977706507691   108.90645842     8.58184791

---------------------------
INTERNAL COORDINATES (A.U.)
---------------------------
 C      0   0   0     0.000000000000     0.00000000     0.00000000
 C      1   0   0     2.653377071936     0.00000000     0.00000000
 H      2   1   0    12.512461718140   106.92229325     0.00000000
 C      3   2   1     2.085747421421    46.22258554    69.22414355
 H      2   1   3     2.079757325252   120.17386291   196.94583640
 C      2   1   3     2.648790926073   120.12786737    16.42193366
 H      1   2   3     4.089691149877   145.95409447   344.17437479
 H      6   2   1     2.077447537692   121.36623058   180.10486549
 C      6   2   1     2.649906756535   120.15028111     0.00000000
 O      4   3   2     4.601841387293    87.83686745   341.22950962
 H      4   3   2     2.090464674369   111.17308458   111.71132445
 C      9   6   2     2.677236630215   120.62118319     0.86572940
 C     10   4   3     2.277399723655    29.11793240   163.62636625
 O      9   6   2     2.605970182400   119.34683759   177.50333462
 C      7   1   2     2.083477478431    34.40488852   357.33454565
 C     12   9   6     2.844711414812   120.60969729   179.51803814
 H      1   2   3     2.078625363445   120.40993942   162.45469009
 H      4   3   2     2.096257174984   109.46788524   230.69042439
 O     16  12   9     2.574851017670   115.21260551   210.45780076
 O     16  12   9     2.293512215828   124.79314585    30.94383295
 H     19  16  12     1.847597538888   108.90645842     8.58184791

---------------------
BASIS SET INFORMATION
---------------------
There are 3 groups of distinct atoms

 Group   1 Type C   : 7s4p1d contracted to 3s2p1d pattern {511/31/1}
 Group   2 Type H   : 4s1p contracted to 2s1p pattern {31/1}
 Group   3 Type O   : 7s4p1d contracted to 3s2p1d pattern {511/31/1}

Atom   0C    basis set group =>   1
Atom   1C    basis set group =>   1
Atom   2H    basis set group =>   2
Atom   3C    basis set group =>   1
Atom   4H    basis set group =>   2
Atom   5C    basis set group =>   1
Atom   6H    basis set group =>   2
Atom   7H    basis set group =>   2
Atom   8C    basis set group =>   1
Atom   9O    basis set group =>   3
Atom  10H    basis set group =>   2
Atom  11C    basis set group =>   1
Atom  12C    basis set group =>   1
Atom  13O    basis set group =>   3
Atom  14C    basis set group =>   1
Atom  15C    basis set group =>   1
Atom  16H    basis set group =>   2
Atom  17H    basis set group =>   2
Atom  18O    basis set group =>   3
Atom  19O    basis set group =>   3
Atom  20H    basis set group =>   2
---------------------------------
AUXILIARY/J BASIS SET INFORMATION
---------------------------------
There are 3 groups of distinct atoms

 Group   1 Type C   : 12s5p4d2f1g contracted to 6s4p3d1f1g pattern {711111/2111/211/2/1}
 Group   2 Type H   : 5s2p1d contracted to 3s1p1d pattern {311/2/1}
 Group   3 Type O   : 12s5p4d2f1g contracted to 6s4p3d1f1g pattern {711111/2111/211/2/1}

Atom   0C    basis set group =>   1
Atom   1C    basis set group =>   1
Atom   2H    basis set group =>   2
Atom   3C    basis set group =>   1
Atom   4H    basis set group =>   2
Atom   5C    basis set group =>   1
Atom   6H    basis set group =>   2
Atom   7H    basis set group =>   2
Atom   8C    basis set group =>   1
Atom   9O    basis set group =>   3
Atom  10H    basis set group =>   2
Atom  11C    basis set group =>   1
Atom  12C    basis set group =>   1
Atom  13O    basis set group =>   3
Atom  14C    basis set group =>   1
Atom  15C    basis set group =>   1
Atom  16H    basis set group =>   2
Atom  17H    basis set group =>   2
Atom  18O    basis set group =>   3
Atom  19O    basis set group =>   3
Atom  20H    basis set group =>   2


           ************************************************************
           *        Program running with 4 parallel MPI-processes     *
           *              working on a common directory               *
           ************************************************************
------------------------------------------------------------------------------
                             ORCA STARTUP CALCULATIONS
                           -- RI-GTO INTEGRALS CHOSEN --
------------------------------------------------------------------------------
------------------------------------------------------------------------------
                   ___                                                        
                  /   \      - P O W E R E D   B Y -                         
                 /     \                                                     
                 |  |  |   _    _      __       _____    __    __             
                 |  |  |  | |  | |    /  \     |  _  \  |  |  /  |          
                  \  \/   | |  | |   /    \    | | | |  |  | /  /          
                 / \  \   | |__| |  /  /\  \   | |_| |  |  |/  /          
                |  |  |   |  __  | /  /__\  \  |    /   |      \           
                |  |  |   | |  | | |   __   |  |    \   |  |\   \          
                \     /   | |  | | |  |  |  |  | |\  \  |  | \   \       
                 \___/    |_|  |_| |__|  |__|  |_| \__\ |__|  \__/        
                                                                              
                      - O R C A' S   B I G   F R I E N D -                    
                                      &                                       
                       - I N T E G R A L  F E E D E R -                       
                                                                              
 v1 FN, 2020, v2 2021, v3 2022-2024                                           
------------------------------------------------------------------------------


----------------------
SHARK INTEGRAL PACKAGE
----------------------

Number of atoms                             ...     21
Number of basis functions                   ...    222
Number of shells                            ...    102
Maximum angular momentum                    ...      2
Integral batch strategy                     ... SHARK/LIBINT Hybrid
RI-J (if used) integral strategy            ... SPLIT-RIJ (Revised 2003 algorithm where possible)
Printlevel                                  ...      1
Contraction scheme used                     ... SEGMENTED contraction
Prescreening option                         ... SCHWARTZ
   Thresh                                   ... 1.000e-10
   Tcut                                     ... 1.000e-11
   Tpresel                                  ... 1.000e-11 
Coulomb Range Separation                    ... NOT USED
Exchange Range Separation                   ... NOT USED
Multipole approximations                    ... NOT USED
Finite Nucleus Model                        ... NOT USED
CABS basis                                  ... NOT available
Auxiliary Coulomb fitting basis             ... AVAILABLE
   # of basis functions in Aux-J            ...    725
   # of shells in Aux-J                     ...    235
   Maximum angular momentum in Aux-J        ...      4
Auxiliary J/K fitting basis                 ... NOT available
Auxiliary Correlation fitting basis         ... NOT available
Auxiliary 'external' fitting basis          ... NOT available

Checking pre-screening integrals            ... done (  0.0 sec) Dimension = 102
Check shell pair data                       ... done (  0.0 sec)
Shell pair information
Shell pair cut-off parameter TPreSel        ...   1.0e-11
Total number of shell pairs                 ...      5253
Shell pairs after pre-screening             ...      4508
Total number of primitive shell pairs       ...     19499
Primitive shell pairs kept                  ...     11391
          la=0 lb=0:   1325 shell pairs
          la=1 lb=0:   1624 shell pairs
          la=1 lb=1:    526 shell pairs
          la=2 lb=0:    589 shell pairs
          la=2 lb=1:    369 shell pairs
          la=2 lb=2:     75 shell pairs

Calculating one electron integrals          ... done (  0.0 sec)
Calculating RI/J V-Matrix + Cholesky decomp.... done (  0.0 sec)
Calculating Nuclear repulsion               ... done (  0.0 sec) ENN=    780.000694346864 Eh

Diagonalization of the overlap matrix:
Smallest eigenvalue                        ... 2.649e-04
Time for diagonalization                   ...    0.008 sec
Threshold for overlap eigenvalues          ... 1.000e-07
Number of eigenvalues below threshold      ... 0
Time for construction of square roots      ...    0.003 sec
Total time needed                          ...    0.012 sec

-------------------
DFT GRID GENERATION
-------------------

General Integration Accuracy     IntAcc      ... 4.388
Radial Grid Type                 RadialGrid  ... OptM3 with GC (2021)
Angular Grid (max. ang.)         AngularGrid ... 4 (Lebedev-302)
Angular grid pruning method      GridPruning ... 4 (adaptive)
Weight generation scheme         WeightScheme... mBecke (2022)
Basis function cutoff            BFCut       ... 1.0000e-10
Integration weight cutoff        WCut        ... 1.0000e-14
Partially contracted basis set               ... off
Rotationally invariant grid construction     ... off
Angular grids for H and He will be reduced by one unit

Total number of grid points                  ...   104043
Total number of batches                      ...     1636
Average number of points per batch           ...       63
Average number of grid points per atom       ...     4954
Initializing property integral containers    ... done (  0.0 sec)

SHARK setup successfully completed in   1.3 seconds

Maximum memory used throughout the entire STARTUP-calculation: 29.5 MB


           ************************************************************
           *        Program running with 4 parallel MPI-processes     *
           *              working on a common directory               *
           ************************************************************
-------------------------------------------------------------------------------
                                 ORCA GUESS
                   Start orbitals & Density for SCF / CASSCF
-------------------------------------------------------------------------------

------------
SCF SETTINGS
------------
Hamiltonian:
 Density Functional     Method          .... DFT(GTOs)
 Exchange Functional    Exchange        .... PBE
   PBE kappa parameter   XKappa         ....  0.804000
   PBE mue parameter    XMuePBE         ....  0.219520
 Correlation Functional Correlation     .... PBE
   PBE beta parameter  CBetaPBE         ....  0.066725
 LDA part of GGA corr.  LDAOpt          .... PW91-LDA
 Gradients option       PostSCFGGA      .... off
   NL short-range parameter             ....  6.400000
 RI-approximation to the Coulomb term is turned on
   Number of AuxJ basis functions       .... 725


General Settings:
 Integral files         IntName         .... /DiscorcaJobs/Orca/Job/aspirin_ftir/aspirin_ftir
 Hartree-Fock type      HFTyp           .... RHF
 Total Charge           Charge          ....    0
 Multiplicity           Mult            ....    1
 Number of Electrons    NEL             ....   94
 Basis Dimension        Dim             ....  222
 Nuclear Repulsion      ENuc            ....    780.0006943469 Eh

Convergence Acceleration:
 AO-DIIS                CNVDIIS         .... on
   Start iteration      DIISMaxIt       ....    12
   Startup error        DIISStart       ....  0.200000
   # of expansion vecs  DIISMaxEq       ....     5
   Bias factor          DIISBfac        ....   1.050
   Max. coefficient     DIISMaxC        ....  10.000
 MO-DIIS                CNVKDIIS        .... off
 Trust-Rad. Augm. Hess. CNVTRAH         .... auto
   Auto Start mean grad. ratio tolernc. ....  1.125000
   Auto Start start iteration           ....    50
   Auto Start num. interpolation iter.  ....    10
   Max. Number of Micro iterations      ....    24
   Max. Number of Macro iterations      .... Maxiter - #DIIS iter
   Number of Davidson start vectors     ....     2
   Converg. threshold    (grad. norm)   ....   5.000e-05
   Grad. Scal. Fac. for Micro threshold ....   0.100
   Minimum threshold for Micro iter.    ....   1.000e-02
   NR start threshold (gradient norm)   ....   1.000e-04
   Initial trust radius                 ....   0.400
   Minimum AH scaling param. (alpha)    ....   1.000
   Maximum AH scaling param. (alpha)    .... 1000.000
   Quad. conv. algorithm                .... NR
   White noise on init. David. guess    .... on
   Maximum white noise                  ....   0.010
   Pseudo random numbers                .... off
   Inactive MOs                         .... canonical
   Orbital update algorithm             .... Taylor
   Preconditioner                       .... Diag
   Full preconditioner red. dimension   ....   250
 SOSCF                  CNVSOSCF        .... on
   Start iteration      SOSCFMaxIt      ....   150
   Startup grad/error   SOSCFStart      ....  0.003300
   Hessian update       SOSCFHessUp     .... L-BFGS
 Level Shifting         CNVShift        .... on
   Level shift para.    LevelShift      ....    0.2500
   Turn off err/grad.   ShiftErr        ....    0.0010
 Zerner damping         CNVZerner       .... off
 Static damping         CNVDamp         .... on
   Fraction old density DampFac         ....    0.7000
   Max. Damping (<1)    DampMax         ....    0.9800
   Min. Damping (>=0)   DampMin         ....    0.0000
   Turn off err/grad.   DampErr         ....    0.1000

SCF Procedure:
 Maximum # iterations   MaxIter         ....   125
 SCF integral mode      SCFMode         .... Direct
   Integral package                     .... SHARK and LIBINT hybrid scheme
 Reset frequency        DirectResetFreq ....    20
 Integral Threshold     Thresh          ....  1.000e-10 Eh
 Primitive CutOff       TCut            ....  1.000e-11 Eh

Convergence Tolerance:
 Convergence Check Mode ConvCheckMode   .... Total+1el-Energy
 Convergence forced     ConvForced      .... 0
 Energy Change          TolE            ....  1.000e-06 Eh
 1-El. energy change                    ....  1.000e-03 Eh
 Orbital Gradient       TolG            ....  5.000e-05
 Orbital Rotation angle TolX            ....  5.000e-05
 DIIS Error             TolErr          ....  1.000e-06

------------------------------
INITIAL GUESS: MODEL POTENTIAL
------------------------------
Loading Hartree-Fock densities                     ... done
Calculating cut-offs                               ... done
Initializing the effective Hamiltonian             ... done
Setting up the integral package (SHARK)            ... done
Starting the Coulomb interaction                   ... done (   0.1 sec)
Making the grid                                    ... done (   0.2 sec)
Mapping shells                                     ... done
Starting the XC term evaluation                    ... done (   0.1 sec)
  promolecular density results
     # of electrons  =     94.001808259
     EX              =    -80.949025853
     EC              =     -3.152289647
     EX+EC           =    -84.101315501
Transforming the Hamiltonian                       ... done (   0.0 sec)
Diagonalizing the Hamiltonian                      ... done (   0.0 sec)
Back transforming the eigenvectors                 ... done (   0.0 sec)
Now organizing SCF variables                       ... done
                      ------------------
                      INITIAL GUESS DONE (   0.5 sec)
                      ------------------
             **** ENERGY FILE WAS UPDATED (/DiscorcaJobs/Orca/Job/aspirin_ftir/aspirin_ftir.en.tmp) ****
Finished Guess after   0.8 sec
Maximum memory used throughout the entire GUESS-calculation: 16.5 MB


           ************************************************************
           *        Program running with 4 parallel MPI-processes     *
           *              working on a common directory               *
           ************************************************************

-------------------------------------------------------------------------------------------
                                      ORCA LEAN-SCF
                              memory conserving SCF solver
-------------------------------------------------------------------------------------------

----------------------------------------D-I-I-S--------------------------------------------
Iteration    Energy (Eh)           Delta-E    RMSDP     MaxDP     DIISErr   Damp  Time(sec)
-------------------------------------------------------------------------------------------
               ***  Starting incremental Fock matrix formation  ***
    1    -647.1478340726785063     0.00e+00  4.08e-03  1.21e-01  2.42e-01  0.700   0.7
    2    -647.3211007250436069    -1.73e-01  2.33e-03  7.53e-02  7.56e-02  0.700   0.6
                               ***Turning on AO-DIIS***
    3    -647.3665109866942657    -4.54e-02  8.62e-04  1.66e-02  2.55e-02  0.700   0.6
    4    -647.4012274159692879    -3.47e-02  1.35e-03  2.74e-02  2.42e-02  0.000   0.6
    5    -647.4824855347344510    -8.13e-02  4.08e-04  8.08e-03  8.97e-03  0.000   0.6
    6    -647.4833259049707976    -8.40e-04  1.61e-04  5.60e-03  3.40e-03  0.000   0.6
                              *** Initializing SOSCF ***
---------------------------------------S-O-S-C-F--------------------------------------
Iteration    Energy (Eh)           Delta-E    RMSDP     MaxDP     MaxGrad    Time(sec)
--------------------------------------------------------------------------------------
    7    -647.4834065662446392    -8.07e-05  5.16e-05  9.41e-04  1.27e-03     0.6
               *** Restarting incremental Fock matrix formation ***
    8    -647.4834178480737137    -1.13e-05  4.58e-05  8.95e-04  2.06e-04     0.6
    9    -647.4834132172181853     4.63e-06  2.68e-05  7.34e-04  5.72e-04     0.5
   10    -647.4834193474609947    -6.13e-06  1.49e-05  3.46e-04  8.80e-05     0.5
   11    -647.4834189595442240     3.88e-07  8.80e-06  2.10e-04  1.40e-04     0.5
                 **** Energy Check signals convergence ****

               *****************************************************
               *                     SUCCESS                       *
               *           SCF CONVERGED AFTER  11 CYCLES          *
               *****************************************************

             **** ENERGY FILE WAS UPDATED (/DiscorcaJobs/Orca/Job/aspirin_ftir/aspirin_ftir.en.tmp) ****

----------------
TOTAL SCF ENERGY
----------------

Total Energy       :       -647.48341895954422 Eh          -17618.91956 eV

Components:
Nuclear Repulsion  :        780.00069434686361 Eh           21224.89795 eV
Electronic Energy  :      -1427.48411330640783 Eh          -38843.81750 eV
One Electron Energy:      -2431.13339672402935 Eh          -66154.50295 eV
Two Electron Energy:       1003.64928341762152 Eh           27310.68545 eV

Virial components:
Potential Energy   :      -1289.13857302183533 Eh          -35079.24397 eV
Kinetic Energy     :        641.65515406229110 Eh           17460.32441 eV
Virial Ratio       :          2.00908317319725

DFT components:
N(Alpha)           :       46.999994892044 electrons
N(Beta)            :       46.999994892044 electrons
N(Total)           :       93.999989784089 electrons
E(X)               :      -82.069603947588 Eh       
E(C)               :       -3.174958149104 Eh       
E(XC)              :      -85.244562096692 Eh       

---------------
SCF CONVERGENCE
---------------

  Last Energy change         ...   -3.8792e-07  Tolerance :   1.0000e-06
  Last MAX-Density change    ...    2.0974e-04  Tolerance :   1.0000e-05
  Last RMS-Density change    ...    8.8013e-06  Tolerance :   1.0000e-06
  Last DIIS Error            ...    1.2736e-03  Tolerance :   1.0000e-06
  Last Orbital Gradient      ...    1.3967e-04  Tolerance :   5.0000e-05
  Last Orbital Rotation      ...    2.1691e-04  Tolerance :   5.0000e-05


----------------
ORBITAL ENERGIES
----------------

  NO   OCC          E(Eh)            E(eV) 
   0   2.0000     -18.809576      -511.8346 
   1   2.0000     -18.807837      -511.7873 
   2   2.0000     -18.748844      -510.1820 
   3   2.0000     -18.747757      -510.1524 
   4   2.0000     -10.027574      -272.8642 
   5   2.0000     -10.020351      -272.6676 
   6   2.0000      -9.981819      -271.6191 
   7   2.0000      -9.936342      -270.3816 
   8   2.0000      -9.935718      -270.3646 
   9   2.0000      -9.929107      -270.1847 
  10   2.0000      -9.926194      -270.1055 
  11   2.0000      -9.923781      -270.0398 
  12   2.0000      -9.905980      -269.5554 
  13   2.0000      -1.008269       -27.4364 
  14   2.0000      -1.000433       -27.2232 
  15   2.0000      -0.926641       -25.2152 
  16   2.0000      -0.921833       -25.0844 
  17   2.0000      -0.794092       -21.6083 
  18   2.0000      -0.706253       -19.2181 
  19   2.0000      -0.702321       -19.1111 
  20   2.0000      -0.663832       -18.0638 
  21   2.0000      -0.595923       -16.2159 
  22   2.0000      -0.579404       -15.7664 
  23   2.0000      -0.559118       -15.2144 
  24   2.0000      -0.535227       -14.5643 
  25   2.0000      -0.491838       -13.3836 
  26   2.0000      -0.452380       -12.3099 
  27   2.0000      -0.440528       -11.9874 
  28   2.0000      -0.434286       -11.8175 
  29   2.0000      -0.420804       -11.4507 
  30   2.0000      -0.410583       -11.1725 
  31   2.0000      -0.406815       -11.0700 
  32   2.0000      -0.401647       -10.9294 
  33   2.0000      -0.382297       -10.4028 
  34   2.0000      -0.361897        -9.8477 
  35   2.0000      -0.360075        -9.7981 
  36   2.0000      -0.353067        -9.6074 
  37   2.0000      -0.342068        -9.3082 
  38   2.0000      -0.339669        -9.2429 
  39   2.0000      -0.327310        -8.9065 
  40   2.0000      -0.325382        -8.8541 
  41   2.0000      -0.282820        -7.6959 
  42   2.0000      -0.269228        -7.3261 
  43   2.0000      -0.255997        -6.9660 
  44   2.0000      -0.245812        -6.6889 
  45   2.0000      -0.232320        -6.3217 
  46   2.0000      -0.226946        -6.1755 
  47   0.0000      -0.089298        -2.4299 
  48   0.0000      -0.063200        -1.7198 
  49   0.0000      -0.030475        -0.8293 
  50   0.0000      -0.007359        -0.2002 
  51   0.0000       0.013521         0.3679 
  52   0.0000       0.035544         0.9672 
  53   0.0000       0.060464         1.6453 
  54   0.0000       0.071431         1.9437 
  55   0.0000       0.079103         2.1525 
  56   0.0000       0.095080         2.5872 
  57   0.0000       0.103101         2.8055 
*Only the first 10 virtual orbitals were printed.

                    ********************************
                    * MULLIKEN POPULATION ANALYSIS *
                    ********************************

-----------------------
MULLIKEN ATOMIC CHARGES
-----------------------
   0 C :    0.027124
   1 C :    0.011720
   2 H :    0.051549
   3 C :   -0.000207
   4 H :    0.012045
   5 C :    0.013514
   6 H :   -0.001241
   7 H :   -0.002014
   8 C :    0.131950
   9 O :   -0.168233
  10 H :    0.049974
  11 C :   -0.046533
  12 C :    0.106570
  13 O :   -0.248245
  14 C :   -0.057049
  15 C :    0.158587
  16 H :    0.006645
  17 H :    0.080681
  18 O :   -0.134966
  19 O :   -0.163308
  20 H :    0.171437
Sum of atomic charges:    0.0000000

--------------------------------
MULLIKEN REDUCED ORBITAL CHARGES
--------------------------------
  0 C s       :     3.171053  s :     3.171053
      pz      :     0.980634  p :     2.770510
      px      :     0.859386
      py      :     0.930490
      dz2     :     0.002802  d :     0.031313
      dxz     :     0.003999
      dyz     :     0.004825
      dx2y2   :     0.009309
      dxy     :     0.010379

  1 C s       :     3.179567  s :     3.179567
      pz      :     0.960166  p :     2.776810
      px      :     0.891565
      py      :     0.925080
      dz2     :     0.003099  d :     0.031903
      dxz     :     0.004044
      dyz     :     0.004940
      dx2y2   :     0.009235
      dxy     :     0.010584

  2 H s       :     0.925783  s :     0.925783
      pz      :     0.008289  p :     0.022668
      px      :     0.005426
      py      :     0.008954

  3 C s       :     2.970214  s :     2.970214
      pz      :     0.998450  p :     3.009204
      px      :     0.976158
      py      :     1.034596
      dz2     :     0.005033  d :     0.020789
      dxz     :     0.002938
      dyz     :     0.003650
      dx2y2   :     0.004575
      dxy     :     0.004594

  4 H s       :     0.965596  s :     0.965596
      pz      :     0.004690  p :     0.022359
      px      :     0.011456
      py      :     0.006213

  5 C s       :     3.257148  s :     3.257148
      pz      :     0.973656  p :     2.699551
      px      :     0.927280
      py      :     0.798615
      dz2     :     0.002459  d :     0.029786
      dxz     :     0.005995
      dyz     :     0.002922
      dx2y2   :     0.009573
      dxy     :     0.008838

  6 H s       :     0.978336  s :     0.978336
      pz      :     0.006482  p :     0.022905
      px      :     0.003767
      py      :     0.012656

  7 H s       :     0.979443  s :     0.979443
      pz      :     0.005670  p :     0.022572
      px      :     0.003399
      py      :     0.013503

  8 C s       :     3.033158  s :     3.033158
      pz      :     0.973555  p :     2.766760
      px      :     0.803444
      py      :     0.989761
      dz2     :     0.005970  d :     0.068132
      dxz     :     0.011967
      dyz     :     0.007835
      dx2y2   :     0.021395
      dxy     :     0.020964

  9 O s       :     3.746106  s :     3.746106
      pz      :     1.356719  p :     4.403889
      px      :     1.617217
      py      :     1.429953
      dz2     :     0.006450  d :     0.018238
      dxz     :     0.005138
      dyz     :     0.004621
      dx2y2   :     0.000879
      dxy     :     0.001149

 10 H s       :     0.926667  s :     0.926667
      pz      :     0.012776  p :     0.023359
      px      :     0.004337
      py      :     0.006245

 11 C s       :     3.080325  s :     3.080325
      pz      :     1.043302  p :     2.931658
      px      :     0.868982
      py      :     1.019374
      dz2     :     0.003812  d :     0.034549
      dxz     :     0.004890
      dyz     :     0.005285
      dx2y2   :     0.010483
      dxy     :     0.010079

 12 C s       :     3.101471  s :     3.101471
      pz      :     0.857569  p :     2.668455
      px      :     0.975384
      py      :     0.835502
      dz2     :     0.031151  d :     0.123505
      dxz     :     0.039016
      dyz     :     0.028467
      dx2y2   :     0.013091
      dxy     :     0.011780

 13 O s       :     3.722640  s :     3.722640
      pz      :     1.549809  p :     4.510275
      px      :     1.371629
      py      :     1.588837
      dz2     :     0.003309  d :     0.015331
      dxz     :     0.004243
      dyz     :     0.002924
      dx2y2   :     0.002366
      dxy     :     0.002489

 14 C s       :     3.235816  s :     3.235816
      pz      :     0.976309  p :     2.789685
      px      :     0.952194
      py      :     0.861182
      dz2     :     0.002398  d :     0.031548
      dxz     :     0.007136
      dyz     :     0.002641
      dx2y2   :     0.010800
      dxy     :     0.008573

 15 C s       :     3.062371  s :     3.062371
      pz      :     0.861983  p :     2.651631
      px      :     0.958899
      py      :     0.830750
      dz2     :     0.010484  d :     0.127411
      dxz     :     0.016258
      dyz     :     0.019946
      dx2y2   :     0.046066
      dxy     :     0.034656

 16 H s       :     0.970799  s :     0.970799
      pz      :     0.005231  p :     0.022557
      px      :     0.011518
      py      :     0.005808

 17 H s       :     0.894765  s :     0.894765
      pz      :     0.005485  p :     0.024554
      px      :     0.007156
      py      :     0.011914

 18 O s       :     3.692550  s :     3.692550
      pz      :     1.656590  p :     4.429331
      px      :     1.410289
      py      :     1.362452
      dz2     :     0.001561  d :     0.013085
      dxz     :     0.001774
      dyz     :     0.002208
      dx2y2   :     0.005639
      dxy     :     0.001903

 19 O s       :     3.745367  s :     3.745367
      pz      :     1.369893  p :     4.400539
      px      :     1.399966
      py      :     1.630680
      dz2     :     0.002307  d :     0.017401
      dxz     :     0.004690
      dyz     :     0.001300
      dx2y2   :     0.004291
      dxy     :     0.004813

 20 H s       :     0.759264  s :     0.759264
      pz      :     0.020208  p :     0.069299
      px      :     0.033290
      py      :     0.015801



                     *******************************
                     * LOEWDIN POPULATION ANALYSIS *
                     *******************************

----------------------
LOEWDIN ATOMIC CHARGES
----------------------
   0 C :   -0.029533
   1 C :   -0.007229
   2 H :    0.047255
   3 C :   -0.089110
   4 H :    0.039543
   5 C :   -0.025947
   6 H :    0.031857
   7 H :    0.043310
   8 C :    0.064268
   9 O :   -0.130190
  10 H :    0.047693
  11 C :   -0.092535
  12 C :    0.084451
  13 O :   -0.064191
  14 C :   -0.027746
  15 C :    0.064134
  16 H :    0.038071
  17 H :    0.066027
  18 O :   -0.016259
  19 O :   -0.133245
  20 H :    0.089376

-------------------------------
LOEWDIN REDUCED ORBITAL CHARGES
-------------------------------
  0 C s       :     2.868723  s :     2.868723
      pz      :     0.981006  p :     3.075072
      px      :     1.043438
      py      :     1.050629
      dz2     :     0.006818  d :     0.085738
      dxz     :     0.008831
      dyz     :     0.011409
      dx2y2   :     0.028196
      dxy     :     0.030484

  1 C s       :     2.871434  s :     2.871434
      pz      :     0.955154  p :     3.049582
      px      :     1.046357
      py      :     1.048070
      dz2     :     0.007266  d :     0.086214
      dxz     :     0.008828
      dyz     :     0.011802
      dx2y2   :     0.027767
      dxy     :     0.030551

  2 H s       :     0.887481  s :     0.887481
      pz      :     0.023352  p :     0.065263
      px      :     0.016764
      py      :     0.025148

  3 C s       :     2.856130  s :     2.856130
      pz      :     1.064751  p :     3.170855
      px      :     1.031411
      py      :     1.074694
      dz2     :     0.014962  d :     0.062125
      dxz     :     0.008954
      dyz     :     0.010881
      dx2y2   :     0.013534
      dxy     :     0.013794

  4 H s       :     0.894142  s :     0.894142
      pz      :     0.013442  p :     0.066315
      px      :     0.034025
      py      :     0.018848

  5 C s       :     2.875045  s :     2.875045
      pz      :     0.981437  p :     3.067767
      px      :     1.055054
      py      :     1.031277
      dz2     :     0.006287  d :     0.083134
      dxz     :     0.013754
      dyz     :     0.006153
      dx2y2   :     0.029259
      dxy     :     0.027681

  6 H s       :     0.899800  s :     0.899800
      pz      :     0.017998  p :     0.068343
      px      :     0.011574
      py      :     0.038771

  7 H s       :     0.889122  s :     0.889122
      pz      :     0.016547  p :     0.067568
      px      :     0.010434
      py      :     0.040587

  8 C s       :     2.851915  s :     2.851915
      pz      :     0.968517  p :     2.920193
      px      :     0.930222
      py      :     1.021454
      dz2     :     0.013600  d :     0.163624
      dxz     :     0.024573
      dyz     :     0.017123
      dx2y2   :     0.055509
      dxy     :     0.052819

  9 O s       :     3.549880  s :     3.549880
      pz      :     1.475295  p :     4.548588
      px      :     1.641528
      py      :     1.431765
      dz2     :     0.012274  d :     0.031722
      dxz     :     0.009961
      dyz     :     0.006566
      dx2y2   :     0.001394
      dxy     :     0.001528

 10 H s       :     0.886040  s :     0.886040
      pz      :     0.038326  p :     0.066266
      px      :     0.012589
      py      :     0.015352

 11 C s       :     2.876596  s :     2.876596
      pz      :     1.017689  p :     3.118416
      px      :     1.043086
      py      :     1.057641
      dz2     :     0.009521  d :     0.097524
      dxz     :     0.010873
      dyz     :     0.012414
      dx2y2   :     0.032975
      dxy     :     0.031740

 12 C s       :     2.870560  s :     2.870560
      pz      :     0.955264  p :     2.769285
      px      :     0.977647
      py      :     0.836375
      dz2     :     0.072993  d :     0.275703
      dxz     :     0.092078
      dyz     :     0.061822
      dx2y2   :     0.027251
      dxy     :     0.021558

 13 O s       :     3.451372  s :     3.451372
      pz      :     1.583625  p :     4.581754
      px      :     1.404198
      py      :     1.593930
      dz2     :     0.005704  d :     0.031066
      dxz     :     0.008757
      dyz     :     0.005557
      dx2y2   :     0.004977
      dxy     :     0.006070

 14 C s       :     2.869900  s :     2.869900
      pz      :     0.981033  p :     3.070989
      px      :     1.059003
      py      :     1.030952
      dz2     :     0.005969  d :     0.086856
      dxz     :     0.016045
      dyz     :     0.005817
      dx2y2   :     0.032539
      dxy     :     0.026486

 15 C s       :     2.857509  s :     2.857509
      pz      :     0.857829  p :     2.794501
      px      :     1.029235
      py      :     0.907437
      dz2     :     0.021718  d :     0.283857
      dxz     :     0.032377
      dyz     :     0.040219
      dx2y2   :     0.108351
      dxy     :     0.081192

 16 H s       :     0.895220  s :     0.895220
      pz      :     0.014961  p :     0.066709
      px      :     0.034101
      py      :     0.017647

 17 H s       :     0.866492  s :     0.866492
      pz      :     0.012212  p :     0.067482
      px      :     0.020840
      py      :     0.034430

 18 O s       :     3.443765  s :     3.443765
      pz      :     1.643897  p :     4.546271
      px      :     1.484998
      py      :     1.417376
      dz2     :     0.003115  d :     0.026223
      dxz     :     0.003498
      dyz     :     0.003553
      dx2y2   :     0.012647
      dxy     :     0.003409

 19 O s       :     3.551190  s :     3.551190
      pz      :     1.379601  p :     4.551593
      px      :     1.506769
      py      :     1.665222
      dz2     :     0.004057  d :     0.030462
      dxz     :     0.007182
      dyz     :     0.002060
      dx2y2   :     0.007928
      dxy     :     0.009234

 20 H s       :     0.735056  s :     0.735056
      pz      :     0.053331  p :     0.175568
      px      :     0.087632
      py      :     0.034605



                      *****************************
                      * MAYER POPULATION ANALYSIS *
                      *****************************

  NA   - Mulliken gross atomic population
  ZA   - Total nuclear charge
  QA   - Mulliken gross atomic charge
  VA   - Mayer's total valence
  BVA  - Mayer's bonded valence
  FA   - Mayer's free valence

  ATOM       NA         ZA         QA         VA         BVA        FA
  0 C      5.9729     6.0000     0.0271     3.8358     3.8358     0.0000
  1 C      5.9883     6.0000     0.0117     3.8027     3.8027    -0.0000
  2 H      0.9485     1.0000     0.0515     1.0049     1.0049     0.0000
  3 C      6.0002     6.0000    -0.0002     3.8814     3.8814     0.0000
  4 H      0.9880     1.0000     0.0120     0.9798     0.9798    -0.0000
  5 C      5.9865     6.0000     0.0135     3.8444     3.8444     0.0000
  6 H      1.0012     1.0000    -0.0012     0.9994     0.9994     0.0000
  7 H      1.0020     1.0000    -0.0020     0.9943     0.9943    -0.0000
  8 C      5.8680     6.0000     0.1320     4.1154     4.1154     0.0000
  9 O      8.1682     8.0000    -0.1682     2.3251     2.3251    -0.0000
 10 H      0.9500     1.0000     0.0500     1.0002     1.0002     0.0000
 11 C      6.0465     6.0000    -0.0465     3.6941     3.6941     0.0000
 12 C      5.8934     6.0000     0.1066     4.3781     4.3781     0.0000
 13 O      8.2482     8.0000    -0.2482     2.2112     2.2112    -0.0000
 14 C      6.0570     6.0000    -0.0570     3.8669     3.8669     0.0000
 15 C      5.8414     6.0000     0.1586     4.2921     4.2921     0.0000
 16 H      0.9934     1.0000     0.0066     0.9803     0.9803    -0.0000
 17 H      0.9193     1.0000     0.0807     1.0181     1.0181     0.0000
 18 O      8.1350     8.0000    -0.1350     2.3097     2.3097     0.0000
 19 O      8.1633     8.0000    -0.1633     2.3459     2.3459     0.0000
 20 H      0.8286     1.0000     0.1714     1.0354     1.0354    -0.0000

  Mayer bond orders larger than 0.100000
B(  0-C ,  1-C ) :   1.3663 B(  0-C , 14-C ) :   1.3931 B(  0-C , 16-H ) :   0.9776 
B(  1-C ,  4-H ) :   0.9736 B(  1-C ,  5-C ) :   1.3465 B(  2-H ,  3-C ) :   0.9515 
B(  3-C , 10-H ) :   0.9407 B(  3-C , 12-C ) :   1.0608 B(  3-C , 17-H ) :   0.9303 
B(  5-C ,  7-H ) :   0.9763 B(  5-C ,  8-C ) :   1.4004 B(  6-H , 14-C ) :   0.9631 
B(  8-C , 11-C ) :   1.3803 B(  8-C , 13-O ) :   1.0621 B(  9-O , 12-C ) :   2.1331 
B( 11-C , 14-C ) :   1.3312 B( 11-C , 15-C ) :   0.8930 B( 12-C , 13-O ) :   1.0052 
B( 15-C , 18-O ) :   1.2264 B( 15-C , 19-O ) :   2.0857 B( 18-O , 20-H ) :   0.9454 


-------
TIMINGS
-------

Total SCF time: 0 days 0 hours 0 min 6 sec 

Total time                  ....       6.705 sec
Sum of individual times     ....       6.701 sec  ( 99.9%)

SCF preparation             ....       0.346 sec  (  5.2%)
Fock matrix formation       ....       6.001 sec  ( 89.5%)
  Startup                   ....       0.011 sec  (  0.2% of F)
  Split-RI-J                ....       2.308 sec  ( 38.5% of F)
  XC integration            ....       3.634 sec  ( 60.6% of F)
    XC Preparation          ....       0.000 sec  (  0.0% of XC)
    Basis function eval.    ....       1.388 sec  ( 38.2% of XC)
    Density eval.           ....       0.784 sec  ( 21.6% of XC)
    XC-Functional eval.     ....       0.212 sec  (  5.8% of XC)
    XC-Potential eval.      ....       0.888 sec  ( 24.4% of XC)
Diagonalization             ....       0.000 sec  (  0.0%)
Density matrix formation    ....       0.025 sec  (  0.4%)
Total Energy calculation    ....       0.018 sec  (  0.3%)
Population analysis         ....       0.021 sec  (  0.3%)
Orbital Transformation      ....       0.032 sec  (  0.5%)
Orbital Orthonormalization  ....       0.000 sec  (  0.0%)
DIIS solution               ....       0.195 sec  (  2.9%)
SOSCF solution              ....       0.061 sec  (  0.9%)
Finished LeanSCF after   6.7 sec

Maximum memory used throughout the entire LEANSCF-calculation: 21.0 MB


           ************************************************************
           *        Program running with 4 parallel MPI-processes     *
           *              working on a common directory               *
           ************************************************************

------------------------------------------------------------------------------
                         ORCA PROPERTY INTEGRAL CALCULATIONS
------------------------------------------------------------------------------

GBWName                                   ... /DiscorcaJobs/Orca/Job/aspirin_ftir/aspirin_ftir.gbw
Number of atoms                           ...     21
Number of basis functions                 ...    222
Max core memory                           ...   1024 MB

Dipole integrals                          ... YES
Quadrupole integrals                      ...  NO
Linear momentum integrals                 ...  NO
Angular momentum integrals                ...  NO
Higher moments length integrals           ...  NO
Higher moments velocity integrals         ...  NO
Kinetic energy integrals                  ...  NO
GIAO right hand sides                     ...  NO
GIAO dipole derivative integrals          ...  NO
SOC integrals                             ...  NO
EPR diamagnetic integrals (GIAO)          ...  NO
EPR gauge integrals                       ...  NO
Field gradient integrals                  ...  NO (   0 nuclei)
Spin-dipole/Fermi contact integrals       ...  NO (   0 nuclei)
Contact density integrals                 ...  NO (   0 nuclei)
Nucleus-orbit integrals                   ...  NO (   0 nuclei)
Geometric perturbations                   ... YES (  21 nuclei)

Choice of electric origin   ... Center of mass
Position of electric origin ... ( -1.2758,  0.9728, -0.1896) 
Choice of magnetic origin   ... GIAO
Position of magnetic origin ... (  0.0000,  0.0000,  0.0000) 

Calculating integrals                     ... Electric Dipole (Length)     done (  0.0 sec)
Calculating integrals                     ... Geometrical perturbation right hand sides

-----------------------
GEOMETRIC PERTURBATIONS (21 nuclei)
-----------------------

MaxCore                            ...   1024 MB
Number of batches                  ...      1

BATCH   0: Atoms    0 -   20 ( 63 perturbations)
   => H(core) and overlap derivative integrals     ... done (     0.2 sec)
   => Making and storing internal U-coefficients   ... done (     0.0 sec)
   => RI-J derivative integrals                    ... done (     3.0 sec)
   => RI-J response operators                      ... done (     1.0 sec)
   => XC derivative integrals                      ... done (    30.9 sec)
   => XC response operators                        ... done (    10.1 sec)
   => Completing and storing right hand sides      ... done (     0.0 sec)
   => Total time for right hand sides =  45.6 sec

  geometrical perturbations done ( 45.6 sec)

Property integrals calculated in  45.6 sec

Maximum memory used throughout the entire PROPINT-calculation: 93.1 MB

-------------------------   --------------------
FINAL SINGLE POINT ENERGY      -647.483418959544
-------------------------   --------------------



           ************************************************************
           *        Program running with 4 parallel MPI-processes     *
           *              working on a common directory               *
           ************************************************************
------------------------------------------------------------------------------
                            ORCA SCF RESPONSE CALCULATION
------------------------------------------------------------------------------

GBWName                                 ... /DiscorcaJobs/Orca/Job/aspirin_ftir/aspirin_ftir.gbw
Number of atoms                         ...     21
Number of basis functions               ...    222
Max core memory                         ...   1024 MB

Electric field perturbation             ...  NO
Quadrupolar field perturbation          ...  NO
Magnetic field perturbation (no GIAO)   ...  NO
Magnetic field perturbation (with GIAO) ...  NO
Linear momentum (velocity) perturbation ...  NO
Spin-orbit coupling perturbation        ...  NO
Choice of electric origin               ... Center of mass
Position of electric origin             ...    -1.275828     0.972806    -0.189618
Choice of magnetic origin               ... GIAO
Position of magnetic origin             ...     0.000000     0.000000     0.000000
Nuclear geometric perturbations         ... YES (  63 perturbations)
Nucleus-orbit perturbations             ...  NO (   0 perturbations)
Spin-dipole/Fermi contact perturbations ...  NO (   0 perturbations)

Total number of real perturbations      ...     63
Total number of imaginary perturbations ...      0
Total number of triplet perturbations   ...      0
Total number of SOC perturbations       ...      0

Using XC Grid                  ... (/DiscorcaJobs/Orca/Job/aspirin_ftir/aspirin_ftir.grid_cpscf.tmp) 
Recalculating density on grid  ... (/DiscorcaJobs/Orca/Job/aspirin_ftir/aspirin_ftir.grho_cpscf0.tmp) done
Calculating the xc-kernel      ... (/DiscorcaJobs/Orca/Job/aspirin_ftir/aspirin_ftir.fxc_cpscf0.tmp) done

                                **********************
                                * REAL PERTURBATIONS *
                                **********************



-------------------
SHARK CP-SCF DRIVER
-------------------

Dimension of the orbital basis          ...    222
Dimension of the CPSCF-problem          ...   8225
Number of operators                     ...      1
Max. number of iterations               ...    128
Convergence Tolerance                   ... 1.0e-03
Number of perturbations                 ...     63
Perturbation type                       ... REAL

----------------------------
POPLE LINEAR EQUATION SOLVER
----------------------------

  ITERATION   0:   ||err||_max =   9.8907e-01 (   4.5 sec   0/ 63 done)
  ITERATION   1:   ||err||_max =   8.0437e-02 (   4.7 sec   0/ 63 done)
  ITERATION   2:   ||err||_max =   3.0821e-02 (   4.8 sec   1/ 63 done)
  ITERATION   3:   ||err||_max =   1.1163e-02 (   4.8 sec   9/ 63 done)
  ITERATION   4:   ||err||_max =   3.5569e-03 (   4.2 sec  33/ 63 done)
  ITERATION   5:   ||err||_max =   1.1557e-03 (   2.5 sec  61/ 63 done)
  ITERATION   6:   ||err||_max =   4.7185e-04 (   0.4 sec  63/ 63 done)

CP-SCF equations solved in  25.9 sec
Response densities calculated in   0.0 sec

Maximum memory used throughout the entire SCFRESP-calculation: 68.3 MB


           ************************************************************
           *        Program running with 4 parallel MPI-processes     *
           *              working on a common directory               *
           ************************************************************

------------------------------------------------------------------------------
                              ORCA PROPERTY CALCULATIONS
------------------------------------------------------------------------------

GBWName                                 ... /DiscorcaJobs/Orca/Job/aspirin_ftir/aspirin_ftir.gbw
Number of atoms                         ...     21
Number of basis functions               ...    222
Max core memory                         ...   1024 MB

Electric properties:
Dipole moment                           ... YES
Quadrupole moment                       ...  NO
Static polarizability (Dipole/Dipole)   ...  NO
Static polarizability (Dipole/Quad.)    ...  NO
Static polarizability (Quad./Quad.)     ...  NO
Static polarizability (Velocity)        ...  NO

Atomic electric properties:
Dipole moment                           ...  NO
Quadrupole moment                       ...  NO
Static polarizability                   ...  NO

Choice of electric origin               ... Center of mass
Position of electric origin             ...    -1.275828     0.972806    -0.189618

General magnetic properties:
Magnetizability                         ...  NO

EPR properties:
g-Tensor (aka g-matrix)                 ...  NO
Zero-Field splitting spin-orbit         ...  NO
Zero-field splitting spin-spin          ...  NO
Hyperfine couplings                     ...  NO (   0 nuclei)
Quadrupole couplings                    ...  NO (   0 nuclei)
Contact density                         ...  NO (   0 nuclei)

NMR properties:
Chemical shifts                         ...  NO (   0 nuclei)
Spin-rotation constants                 ...  NO (   0 nuclei)
Spin-spin couplings                     ...  NO (   0 nuclei,    0 pairs)

Choice of magnetic origin               ... GIAO
Position of magnetic origin             ...     0.000000     0.000000     0.000000

Properties with geometric perturbations:
SCF Hessian                             ... YES
IR spectrum                             ... YES
VCD spectrum                            ...  NO
X-ray spectroscopy properties:
SCF XES/XAS/RIXS spectra                ...  NO


-------------
DIPOLE MOMENT
-------------

Method             : SCF
Type of density    : Electron Density
Multiplicity       :   1
Irrep              :   0
Energy             :  -647.4834189595442240 Eh
Relativity type    : 
Basis              : AO
                                X                 Y                 Z
Electronic contribution:      0.494492690       2.574426362      -0.906867407
Nuclear contribution   :     -1.785733031      -2.375711907       1.832392370
                        -----------------------------------------
Total Dipole Moment    :     -1.291240342       0.198714455       0.925524964
                        -----------------------------------------
Magnitude (a.u.)       :      1.601057623
Magnitude (Debye)      :      4.069565064



--------------------
Rotational spectrum 
--------------------
 
Rotational constants in cm-1:             0.036790             0.025121             0.016478 
Rotational constants in MHz :          1102.925554           753.114052           494.007395 

Dipole components along the rotational axes: 
x,y,z [a.u.] :     1.271087    -0.548724     0.804130 
x,y,z [Debye]:     3.230847    -1.394744     2.043936 

 

Dipole moment calculation done in   0.0 sec 

-----------
SCF HESSIAN
-----------

Occupied/Occupied contributions to the Hessian:
   => Occupied/Occupied contributions              ... done (  0.0 sec)
Perturbed density contributions to the Hessian:
   => Perturbed density contributions              ... done (  0.0 sec)
Explicit contributions to the Hessian:
   => Nuclear repulsion Hessian                    ... done (  0.0 sec)
   => HCore and overlap Hessian                    ... done (  5.9 sec)
   => RI-J Hessian                                 ... done (  6.5 sec)
   => XC-Hessian                                   ... done ( 26.1 sec)
   => Explicit contributions done
Dipole derivatives                                 ... done (  0.0 sec)
Mass weighting the Hessian           ... done
Calculating normal modes             ... done
Scaling frequencies                  ... done

-----------------------
VIBRATIONAL FREQUENCIES
-----------------------

Scaling factor for frequencies =  1.000000000  (already applied!)

     0:       0.00 cm**-1
     1:       0.00 cm**-1
     2:       0.00 cm**-1
     3:       0.00 cm**-1
     4:       0.00 cm**-1
     5:       0.00 cm**-1
     6:      38.41 cm**-1
     7:      75.99 cm**-1
     8:      88.96 cm**-1
     9:      96.44 cm**-1
    10:     129.41 cm**-1
    11:     137.06 cm**-1
    12:     209.21 cm**-1
    13:     249.42 cm**-1
    14:     301.24 cm**-1
    15:     352.75 cm**-1
    16:     398.55 cm**-1
    17:     433.27 cm**-1
    18:     494.87 cm**-1
    19:     518.09 cm**-1
    20:     532.12 cm**-1
    21:     544.14 cm**-1
    22:     561.99 cm**-1
    23:     632.09 cm**-1
    24:     653.27 cm**-1
    25:     689.23 cm**-1
    26:     735.79 cm**-1
    27:     762.33 cm**-1
    28:     779.35 cm**-1
    29:     808.23 cm**-1
    30:     867.40 cm**-1
    31:     896.59 cm**-1
    32:     943.85 cm**-1
    33:     972.78 cm**-1
    34:     983.08 cm**-1
    35:    1002.04 cm**-1
    36:    1036.64 cm**-1
    37:    1058.83 cm**-1
    38:    1114.16 cm**-1
    39:    1137.73 cm**-1
    40:    1154.06 cm**-1
    41:    1162.37 cm**-1
    42:    1222.40 cm**-1
    43:    1245.19 cm**-1
    44:    1289.88 cm**-1
    45:    1317.90 cm**-1
    46:    1375.27 cm**-1
    47:    1391.10 cm**-1
    48:    1394.05 cm**-1
    49:    1435.93 cm**-1
    50:    1471.39 cm**-1
    51:    1589.63 cm**-1
    52:    1616.88 cm**-1
    53:    1802.84 cm**-1
    54:    1838.33 cm**-1
    55:    2994.73 cm**-1
    56:    3086.64 cm**-1
    57:    3097.63 cm**-1
    58:    3123.23 cm**-1
    59:    3127.43 cm**-1
    60:    3137.93 cm**-1
    61:    3146.79 cm**-1
    62:    3666.60 cm**-1


------------
NORMAL MODES
------------

These modes are the Cartesian displacements weighted by the diagonal matrix
M(i,i)=1/sqrt(m[i]) where m[i] is the mass of the displaced atom
Thus, these vectors are normalized but *not* orthogonal

                  0          1          2          3          4          5    
      0       0.000000   0.000000   0.000000   0.000000   0.000000   0.000000
      1       0.000000   0.000000   0.000000   0.000000   0.000000   0.000000
      2       0.000000   0.000000   0.000000   0.000000   0.000000   0.000000
      3       0.000000   0.000000   0.000000   0.000000   0.000000   0.000000
      4       0.000000   0.000000   0.000000   0.000000   0.000000   0.000000
      5       0.000000   0.000000   0.000000   0.000000   0.000000   0.000000
      6       0.000000   0.000000   0.000000   0.000000   0.000000   0.000000
      7       0.000000   0.000000   0.000000   0.000000   0.000000   0.000000
      8       0.000000   0.000000   0.000000   0.000000   0.000000   0.000000
      9       0.000000   0.000000   0.000000   0.000000   0.000000   0.000000
     10       0.000000   0.000000   0.000000   0.000000   0.000000   0.000000
     11       0.000000   0.000000   0.000000   0.000000   0.000000   0.000000
     12       0.000000   0.000000   0.000000   0.000000   0.000000   0.000000
     13       0.000000   0.000000   0.000000   0.000000   0.000000   0.000000
     14       0.000000   0.000000   0.000000   0.000000   0.000000   0.000000
     15       0.000000   0.000000   0.000000   0.000000   0.000000   0.000000
     16       0.000000   0.000000   0.000000   0.000000   0.000000   0.000000
     17       0.000000   0.000000   0.000000   0.000000   0.000000   0.000000
     18       0.000000   0.000000   0.000000   0.000000   0.000000   0.000000
     19       0.000000   0.000000   0.000000   0.000000   0.000000   0.000000
     20       0.000000   0.000000   0.000000   0.000000   0.000000   0.000000
     21       0.000000   0.000000   0.000000   0.000000   0.000000   0.000000
     22       0.000000   0.000000   0.000000   0.000000   0.000000   0.000000
     23       0.000000   0.000000   0.000000   0.000000   0.000000   0.000000
     24       0.000000   0.000000   0.000000   0.000000   0.000000   0.000000
     25       0.000000   0.000000   0.000000   0.000000   0.000000   0.000000
     26       0.000000   0.000000   0.000000   0.000000   0.000000   0.000000
     27       0.000000   0.000000   0.000000   0.000000   0.000000   0.000000
     28       0.000000   0.000000   0.000000   0.000000   0.000000   0.000000
     29       0.000000   0.000000   0.000000   0.000000   0.000000   0.000000
     30       0.000000   0.000000   0.000000   0.000000   0.000000   0.000000
     31       0.000000   0.000000   0.000000   0.000000   0.000000   0.000000
     32       0.000000   0.000000   0.000000   0.000000   0.000000   0.000000
     33       0.000000   0.000000   0.000000   0.000000   0.000000   0.000000
     34       0.000000   0.000000   0.000000   0.000000   0.000000   0.000000
     35       0.000000   0.000000   0.000000   0.000000   0.000000   0.000000
     36       0.000000   0.000000   0.000000   0.000000   0.000000   0.000000
     37       0.000000   0.000000   0.000000   0.000000   0.000000   0.000000
     38       0.000000   0.000000   0.000000   0.000000   0.000000   0.000000
     39       0.000000   0.000000   0.000000   0.000000   0.000000   0.000000
     40       0.000000   0.000000   0.000000   0.000000   0.000000   0.000000
     41       0.000000   0.000000   0.000000   0.000000   0.000000   0.000000
     42       0.000000   0.000000   0.000000   0.000000   0.000000   0.000000
     43       0.000000   0.000000   0.000000   0.000000   0.000000   0.000000
     44       0.000000   0.000000   0.000000   0.000000   0.000000   0.000000
     45       0.000000   0.000000   0.000000   0.000000   0.000000   0.000000
     46       0.000000   0.000000   0.000000   0.000000   0.000000   0.000000
     47       0.000000   0.000000   0.000000   0.000000   0.000000   0.000000
     48       0.000000   0.000000   0.000000   0.000000   0.000000   0.000000
     49       0.000000   0.000000   0.000000   0.000000   0.000000   0.000000
     50       0.000000   0.000000   0.000000   0.000000   0.000000   0.000000
     51       0.000000   0.000000   0.000000   0.000000   0.000000   0.000000
     52       0.000000   0.000000   0.000000   0.000000   0.000000   0.000000
     53       0.000000   0.000000   0.000000   0.000000   0.000000   0.000000
     54       0.000000   0.000000   0.000000   0.000000   0.000000   0.000000
     55       0.000000   0.000000   0.000000   0.000000   0.000000   0.000000
     56       0.000000   0.000000   0.000000   0.000000   0.000000   0.000000
     57       0.000000   0.000000   0.000000   0.000000   0.000000   0.000000
     58       0.000000   0.000000   0.000000   0.000000   0.000000   0.000000
     59       0.000000   0.000000   0.000000   0.000000   0.000000   0.000000
     60       0.000000   0.000000   0.000000   0.000000   0.000000   0.000000
     61       0.000000   0.000000   0.000000   0.000000   0.000000   0.000000
     62       0.000000   0.000000   0.000000   0.000000   0.000000   0.000000
                  6          7          8          9         10         11    
      0      -0.013526   0.028269  -0.027883   0.033219  -0.012532   0.003637
      1       0.013369  -0.072324   0.017537  -0.099473   0.061233  -0.001644
      2       0.037870  -0.033159   0.114044  -0.189356   0.021488  -0.006131
      3      -0.056263   0.076325   0.005235   0.037788  -0.030942   0.004319
      4       0.046123  -0.073000  -0.011661  -0.025874   0.132751  -0.002330
      5       0.139832  -0.037304   0.022566   0.037634   0.244399  -0.008263
      6       0.033671  -0.208754  -0.042755  -0.182577   0.138336   0.199275
      7       0.126868  -0.299972  -0.236232  -0.131787   0.033249   0.433223
      8      -0.075896  -0.145380   0.192660  -0.147509   0.062600  -0.312705
      9      -0.021226  -0.084963  -0.059218  -0.065600   0.029416   0.002754
     10      -0.013658  -0.277909  -0.259070  -0.143211  -0.007970   0.025681
     11       0.039449  -0.088646   0.206017  -0.058797   0.035138  -0.005819
     12      -0.074599   0.098874   0.017374   0.041722  -0.045929   0.004769
     13       0.096110  -0.119502  -0.030291  -0.021003   0.216096  -0.005044
     14       0.216753  -0.069145   0.032384   0.086693   0.486313  -0.016288
     15      -0.073447   0.100100   0.024011   0.038600  -0.032330   0.004025
     16       0.013053  -0.013144  -0.010669   0.033443   0.087687   0.000149
     17       0.131549  -0.010186  -0.065612   0.182804   0.138735  -0.000550
     18       0.035662  -0.047743  -0.066904   0.033696   0.025050   0.002676
     19      -0.078890  -0.021547   0.055322  -0.129987  -0.061935   0.001814
     20      -0.123822  -0.006433   0.149921  -0.334205  -0.305309   0.002555
     21      -0.100460   0.142536   0.048642   0.046167  -0.050948   0.004035
     22       0.031769  -0.017098  -0.025588   0.081261   0.133508  -0.000525
     23       0.192691  -0.026352  -0.113404   0.330480   0.282451  -0.002694
     24      -0.045499   0.072810   0.010622   0.029603  -0.007591   0.003533
     25      -0.056823   0.043950   0.015006   0.023474  -0.013415   0.002565
     26       0.037319   0.025825  -0.064807   0.095760  -0.119199   0.006746
     27       0.169819  -0.143298   0.166650  -0.098696   0.103789  -0.027969
     28       0.408857  -0.026901   0.058597   0.209235  -0.212054  -0.033344
     29      -0.162726   0.009179  -0.054752   0.018032  -0.079275   0.015596
     30      -0.156155  -0.095655  -0.285446  -0.069114  -0.039868  -0.084835
     31      -0.252093  -0.339636  -0.393504  -0.247047  -0.028172  -0.512794
     32      -0.041836  -0.109584   0.163218  -0.094963   0.029728  -0.188847
     33      -0.002005   0.029125  -0.020723   0.019509   0.001824   0.002404
     34      -0.074224   0.049349   0.032053  -0.030134  -0.038780   0.003015
     35      -0.029855   0.041077  -0.007401  -0.058245  -0.206668   0.006618
     36       0.043261  -0.060345   0.049151  -0.043184   0.040769  -0.003436
     37       0.132815  -0.077958  -0.036082   0.057946  -0.095764   0.001757
     38      -0.054205  -0.016948   0.016058   0.020728  -0.072450  -0.002585
     39      -0.087970   0.087284   0.012346   0.045629  -0.017717   0.005399
     40      -0.135657   0.051543   0.023239   0.040087  -0.036760   0.006023
     41       0.022920  -0.005235  -0.051566   0.091535  -0.143421   0.003026
     42       0.011340   0.000870  -0.040443   0.024120   0.005744   0.002810
     43      -0.052189  -0.017056   0.034801  -0.085830  -0.025216   0.001644
     44      -0.046442   0.005031   0.090690  -0.210503  -0.200345   0.002063
     45       0.012383  -0.001403  -0.035963   0.009604  -0.010314   0.002088
     46      -0.097522   0.113873   0.047860  -0.003591   0.030232   0.001194
     47      -0.016395   0.061680  -0.060822  -0.022835   0.000733  -0.001630
     48       0.002183   0.012404  -0.043196   0.033278  -0.011581   0.003699
     49       0.038149  -0.115636   0.025623  -0.159922   0.079488  -0.003938
     50       0.027734  -0.063691   0.197773  -0.327854   0.059101  -0.011638
     51       0.015868   0.039719   0.084128   0.054762  -0.033716  -0.142187
     52      -0.026052  -0.352947  -0.338496  -0.214753   0.034179   0.136484
     53       0.315179  -0.047992   0.425289   0.005840   0.114521   0.571032
     54      -0.016969  -0.124454  -0.026557  -0.003879  -0.141877   0.007617
     55      -0.056132   0.155139   0.035893  -0.044400   0.001747   0.001718
     56      -0.260234  -0.186619   0.019001   0.210909   0.150894  -0.004752
     57       0.062929   0.074218  -0.062920  -0.002850   0.083171  -0.001543
     58      -0.147018   0.133163   0.068991   0.060323   0.130125  -0.001888
     59       0.213146   0.270555  -0.173249  -0.154142   0.143244  -0.009324
     60      -0.057210  -0.170889   0.001824  -0.005712  -0.225588   0.010675
     61       0.013461   0.162565   0.007874  -0.130796  -0.108400   0.005439
     62      -0.393729  -0.299134   0.100210   0.258080   0.021354   0.000237
                 12         13         14         15         16         17    
      0       0.116213   0.018003   0.038791  -0.104744   0.096174  -0.025206
      1       0.120434   0.063671  -0.131972  -0.060525   0.039991  -0.024206
      2      -0.041882   0.238451   0.029938   0.029540   0.016629  -0.012267
      3      -0.032008   0.012521   0.016375  -0.093511   0.115532  -0.162489
      4       0.111812  -0.007020  -0.128929  -0.040374   0.084292   0.015613
      5      -0.082122   0.024343   0.040827   0.078013   0.146872   0.127951
      6       0.073023  -0.089274   0.085504  -0.049746   0.115969  -0.168920
      7       0.066986   0.041129   0.102220   0.036510   0.027917  -0.101099
      8      -0.071531  -0.077115   0.385140  -0.318320   0.177672  -0.062978
      9       0.040998  -0.016890  -0.182721   0.098372  -0.037984   0.007805
     10       0.016023   0.016647   0.139882  -0.058735   0.038960  -0.025555
     11      -0.037083  -0.004053   0.167216  -0.117178   0.063959  -0.027511
     12      -0.087234   0.001534   0.021482  -0.071852   0.098103  -0.215345
     13       0.182999   0.036194  -0.135994  -0.046382   0.164095   0.129248
     14      -0.186259   0.123912   0.044352   0.212647   0.350677   0.232774
     15      -0.105420   0.020451   0.035054  -0.040837   0.101201  -0.164114
     16      -0.003390  -0.096665  -0.058746   0.001367  -0.067413  -0.130850
     17       0.001612  -0.250330   0.026913  -0.083000  -0.187390  -0.107833
     18       0.324588   0.014806  -0.071606  -0.147867   0.170425   0.072828
     19      -0.021812  -0.022792  -0.068572  -0.078642  -0.108021  -0.179196
     20       0.060405  -0.031212   0.025652  -0.106781  -0.420746  -0.310838
     21      -0.242525   0.033001   0.143077   0.019082   0.080035  -0.212006
     22      -0.021713  -0.127856  -0.053125  -0.001896  -0.130669  -0.201042
     23      -0.040848  -0.349196   0.032541  -0.097100  -0.383688  -0.314890
     24      -0.007483   0.001563  -0.015533  -0.022483   0.077698  -0.132892
     25      -0.132432  -0.049540   0.011380  -0.004794  -0.026607  -0.055923
     26       0.115461  -0.155099  -0.008195  -0.064934  -0.003106   0.073265
     27       0.017226  -0.146327  -0.098324   0.073065  -0.070383   0.041761
     28       0.014231   0.130100   0.013846   0.020304   0.033019  -0.061811
     29       0.005555   0.150422  -0.095405   0.073425  -0.022809   0.007313
     30       0.154877   0.061888  -0.389392   0.399152  -0.141564  -0.080559
     31       0.023952  -0.036933   0.311682  -0.168580   0.129348  -0.108654
     32      -0.037117  -0.023441   0.229050  -0.160203   0.096516  -0.053663
[...]
      0      -0.063080   0.019977  -0.000126
      1       0.033981  -0.012569   0.000035
      2      -0.014851   0.005295   0.000063
      3      -0.024166   0.036258  -0.000017
      4      -0.018625   0.018582  -0.000053
      5       0.004820  -0.004242  -0.000035
      6      -0.000417   0.000312  -0.000005
      7       0.000719  -0.000340  -0.000028
      8       0.000663  -0.000246  -0.000010
      9      -0.000009  -0.000030   0.000001
     10      -0.000091  -0.000015  -0.000006
     11      -0.000100   0.000021  -0.000000
     12       0.288070  -0.377298   0.000124
     13       0.170464  -0.215831   0.000231
     14      -0.040737   0.051048  -0.000046
     15       0.000785  -0.003115  -0.000076
     16       0.035585   0.072556   0.000003
     17      -0.011444  -0.023495   0.000009
     18      -0.001123   0.000756  -0.000169
     19      -0.135225   0.051706   0.006277
     20       0.047236  -0.017961  -0.004712
     21       0.008358   0.020989  -0.000208
     22      -0.412620  -0.812773  -0.000279
     23       0.133209   0.262625   0.000412
     24      -0.001545  -0.003967  -0.000080
     25      -0.000531  -0.001114   0.000226
     26       0.000123   0.000226  -0.000174
     27      -0.000034  -0.000070  -0.000010
     28      -0.000004  -0.000041  -0.000004
     29       0.000019  -0.000057  -0.000014
     30       0.000019  -0.000049  -0.000002
     31      -0.000140   0.000166   0.000000
     32       0.000393  -0.000417   0.000003
     33       0.000950  -0.000033  -0.000120
     34      -0.000649  -0.000184  -0.000589
     35       0.000211   0.000066  -0.000036
     36       0.000149   0.000204   0.000007
     37      -0.000032   0.000067   0.000026
     38      -0.000031   0.000196   0.000029
     39       0.000083   0.000384   0.000030
     40      -0.000016  -0.000119  -0.000019
     41       0.000028  -0.000035  -0.000009
     42       0.002788  -0.001086   0.000040
     43       0.013513  -0.005251  -0.000890
     44      -0.004497   0.001736   0.000320
     45      -0.000031  -0.000263  -0.002914
     46       0.000282  -0.000079   0.000665
     47      -0.000022   0.000046   0.001208
     48       0.707258  -0.223348  -0.000290
     49      -0.377033   0.120915  -0.000047
     50       0.165584  -0.052951   0.000071
     51       0.000315   0.000034  -0.000065
     52       0.000519   0.000216   0.000156
     53      -0.000034  -0.000036  -0.000016
     54      -0.000034   0.000071  -0.054602
     55      -0.000069   0.000065   0.015735
     56       0.000044  -0.000025   0.024114
     57      -0.000044   0.000115   0.001161
     58      -0.000054  -0.000023  -0.000499
     59       0.000015  -0.000024  -0.000442
     60       0.000783  -0.000634   0.887658
     61      -0.000240  -0.000016  -0.240827
     62      -0.000673   0.000288  -0.387531


-----------
IR SPECTRUM
-----------

 Mode   freq       eps      Int      T**2         TX        TY        TZ
       cm**-1   L/(mol*cm) km/mol    a.u.
----------------------------------------------------------------------------
  6:     38.41   0.000190    0.96  0.001544  (-0.029304 -0.012359 -0.023072)
  7:     75.99   0.000858    4.34  0.003523  (-0.012326 -0.044089 -0.037779)
  8:     88.96   0.001247    6.30  0.004374  (-0.008350 -0.040928  0.051272)
  9:     96.44   0.000489    2.47  0.001581  ( 0.015401 -0.036190  0.005875)
 10:    129.41   0.000234    1.18  0.000565  (-0.021770 -0.009287 -0.002179)
 11:    137.06   0.000044    0.22  0.000099  ( 0.000249  0.001731  0.009807)
 12:    209.21   0.000825    4.17  0.001230  ( 0.005311 -0.032841  0.011117)
 13:    249.42   0.000619    3.13  0.000774  (-0.009111 -0.024389 -0.009814)
 14:    301.24   0.000264    1.33  0.000273  (-0.006167  0.007577  0.013340)
 15:    352.75   0.000967    4.89  0.000856  ( 0.007419  0.026083 -0.010977)
 16:    398.55   0.001060    5.36  0.000830  ( 0.022555  0.014390  0.010692)
 17:    433.27   0.000396    2.00  0.000285  (-0.003229 -0.004817  0.015868)
 18:    494.87   0.007440   37.60  0.004691  (-0.020853 -0.004903 -0.065058)
 19:    518.09   0.006521   32.95  0.003928  (-0.013565  0.005705 -0.060921)
 20:    532.12   0.005267   26.62  0.003089  ( 0.039803 -0.003524  0.038627)
 21:    544.14   0.001204    6.08  0.000690  ( 0.010605 -0.023209  0.006269)
 22:    561.99   0.001128    5.70  0.000626  ( 0.023578  0.000373 -0.008388)
 23:    632.09   0.000937    4.74  0.000463  (-0.016406 -0.012557 -0.005998)
 24:    653.27   0.002648   13.38  0.001265  (-0.028214  0.019868  0.008599)
 25:    689.23   0.004080   20.62  0.001847  (-0.010528  0.022930  0.034796)
 26:    735.79   0.001593    8.05  0.000676  ( 0.018234 -0.003399  0.018208)
 27:    762.33   0.001567    7.92  0.000641  (-0.008473 -0.013228 -0.019866)
 28:    779.35   0.002043   10.33  0.000818  (-0.011700  0.009173  0.024436)
 29:    808.23   0.003232   16.33  0.001248  ( 0.001984  0.010985  0.033515)
 30:    867.40   0.002764   13.97  0.000994  (-0.024341  0.020039 -0.000540)
 31:    896.59   0.011501   58.12  0.004003  (-0.041090  0.035126  0.032874)
 32:    943.85   0.001204    6.08  0.000398  (-0.006892  0.013888  0.012553)
 33:    972.78   0.008741   44.18  0.002804  ( 0.048335 -0.020488 -0.006941)
 34:    983.08   0.000081    0.41  0.000026  ( 0.003652 -0.003234  0.001394)
 35:   1002.04   0.002287   11.56  0.000712  (-0.008109 -0.025063  0.004278)
 36:   1036.64   0.000761    3.84  0.000229  (-0.008647 -0.012381 -0.000952)
 37:   1058.83   0.011986   60.57  0.003533  ( 0.017644 -0.055659 -0.011108)
 38:   1114.16   0.000995    5.03  0.000279  ( 0.013848 -0.007586  0.005424)
 39:   1137.73   0.000884    4.47  0.000242  (-0.006438  0.013985  0.002336)
 40:   1154.06   0.107752  544.54  0.029137  (-0.118294  0.112894  0.048972)
 41:   1162.37   0.009713   49.09  0.002608  ( 0.049097 -0.007397 -0.011937)
 42:   1222.40   0.003023   15.28  0.000772  (-0.022172  0.015918 -0.005164)
 43:   1245.19   0.007155   36.16  0.001793  ( 0.024408 -0.034542 -0.002054)
 44:   1289.88   0.081173  410.22  0.019638  ( 0.059870  0.125962  0.013696)
 45:   1317.90   0.022555  113.98  0.005341  (-0.070571  0.018707  0.003240)
 46:   1375.27   0.001651    8.34  0.000375  (-0.008436 -0.017169 -0.002947)
 47:   1391.10   0.002034   10.28  0.000456  ( 0.008722  0.009802  0.016859)
 48:   1394.05   0.002339   11.82  0.000524  ( 0.003400 -0.018658  0.012803)
 49:   1435.93   0.002491   12.59  0.000541  (-0.019840  0.011693 -0.003327)
 50:   1471.39   0.010551   53.32  0.002238  ( 0.021189 -0.042247  0.001960)
 51:   1589.63   0.002075   10.49  0.000407  (-0.005517 -0.019211  0.002802)
 52:   1616.88   0.005660   28.60  0.001092  (-0.031666 -0.008084  0.004921)
 53:   1802.84   0.056907  287.58  0.009850  ( 0.090053 -0.032930 -0.025619)
 54:   1838.33   0.038142  192.75  0.006475  (-0.020025 -0.025532 -0.073634)
 55:   2994.73   0.000243    1.23  0.000025  (-0.000223  0.004656 -0.001896)
 56:   3086.64   0.000441    2.23  0.000045  (-0.005395  0.000969 -0.003811)
 57:   3097.63   0.000912    4.61  0.000092  (-0.002191 -0.009223  0.001420)
 58:   3123.23   0.000513    2.59  0.000051  (-0.004387 -0.005360  0.001815)
 59:   3127.43   0.000562    2.84  0.000056  (-0.004639  0.002651  0.005246)
 60:   3137.93   0.001601    8.09  0.000159  (-0.011442  0.005066 -0.001613)
 61:   3146.79   0.000345    1.74  0.000034  ( 0.004495  0.003418 -0.001512)
 62:   3666.60   0.006375   32.22  0.000543  ( 0.019057 -0.008546 -0.010314)

* The epsilon (eps) is given for a Dirac delta lineshape.
** The dipole moment derivative (T) already includes vibrational overlap.

The first frequency considered to be a vibration is 6
The total number of vibrations considered is 57


--------------------------
THERMOCHEMISTRY AT 298.15K
--------------------------

Temperature         ...   298.15 K
Pressure            ...     1.00 atm
Total Mass          ...   180.16 AMU
Quasi RRHO          ...     True
Cut-Off Frequency   ...     1.00 cm^-1

Throughout the following assumptions are being made:
  (1) The electronic state is orbitally nondegenerate
  (2) There are no thermally accessible electronically excited states
  (3) Hindered rotations indicated by low frequency modes are not
      treated as such but are treated as vibrations and this may
      cause some error
  (4) All equations used are the standard statistical mechanics
      equations for an ideal gas
  (5) All vibrations are strictly harmonic

freq.      38.41  E(vib)   ...       0.54 
freq.      75.99  E(vib)   ...       0.49 
freq.      88.96  E(vib)   ...       0.47 
freq.      96.44  E(vib)   ...       0.47 
freq.     129.41  E(vib)   ...       0.43 
freq.     137.06  E(vib)   ...       0.42 
freq.     209.21  E(vib)   ...       0.34 
freq.     249.42  E(vib)   ...       0.31 
freq.     301.24  E(vib)   ...       0.26 
freq.     352.75  E(vib)   ...       0.22 
freq.     398.55  E(vib)   ...       0.20 
freq.     433.27  E(vib)   ...       0.17 
freq.     494.87  E(vib)   ...       0.14 
freq.     518.09  E(vib)   ...       0.13 
freq.     532.12  E(vib)   ...       0.13 
freq.     544.14  E(vib)   ...       0.12 
freq.     561.99  E(vib)   ...       0.11 
freq.     632.09  E(vib)   ...       0.09 
freq.     653.27  E(vib)   ...       0.08 
freq.     689.23  E(vib)   ...       0.07 
freq.     735.79  E(vib)   ...       0.06 
freq.     762.33  E(vib)   ...       0.06 
freq.     779.35  E(vib)   ...       0.05 
freq.     808.23  E(vib)   ...       0.05 
freq.     867.40  E(vib)   ...       0.04 
freq.     896.59  E(vib)   ...       0.03 
freq.     943.85  E(vib)   ...       0.03 
freq.     972.78  E(vib)   ...       0.03 
freq.     983.08  E(vib)   ...       0.02 
freq.    1002.04  E(vib)   ...       0.02 
freq.    1036.64  E(vib)   ...       0.02 
freq.    1058.83  E(vib)   ...       0.02 
freq.    1114.16  E(vib)   ...       0.01 
freq.    1137.73  E(vib)   ...       0.01 
freq.    1154.06  E(vib)   ...       0.01 
freq.    1162.37  E(vib)   ...       0.01 
freq.    1222.40  E(vib)   ...       0.01 
freq.    1245.19  E(vib)   ...       0.01 
freq.    1289.88  E(vib)   ...       0.01 
freq.    1317.90  E(vib)   ...       0.01 
freq.    1375.27  E(vib)   ...       0.01 
freq.    1391.10  E(vib)   ...       0.00 
freq.    1394.05  E(vib)   ...       0.00 
freq.    1435.93  E(vib)   ...       0.00 
freq.    1471.39  E(vib)   ...       0.00 
freq.    1589.63  E(vib)   ...       0.00 
freq.    1616.88  E(vib)   ...       0.00 
freq.    1802.84  E(vib)   ...       0.00 
freq.    1838.33  E(vib)   ...       0.00 
freq.    2994.73  E(vib)   ...       0.00 
freq.    3086.64  E(vib)   ...       0.00 
freq.    3097.63  E(vib)   ...       0.00 
freq.    3123.23  E(vib)   ...       0.00 
freq.    3127.43  E(vib)   ...       0.00 
freq.    3137.93  E(vib)   ...       0.00 
freq.    3146.79  E(vib)   ...       0.00 
freq.    3666.60  E(vib)   ...       0.00 

------------
INNER ENERGY
------------

The inner energy is: U= E(el) + E(ZPE) + E(vib) + E(rot) + E(trans)
    E(el)   - is the total energy from the electronic structure calculation
              = E(kin-el) + E(nuc-el) + E(el-el) + E(nuc-nuc)
    E(ZPE)  - the the zero temperature vibrational energy from the frequency calculation
    E(vib)  - the the finite temperature correction to E(ZPE) due to population
              of excited vibrational states
    E(rot)  - is the rotational thermal energy
    E(trans)- is the translational thermal energy

Summary of contributions to the inner energy U:
Electronic energy                ...   -647.48341896 Eh
Zero point energy                ...      0.15246294 Eh      95.67 kcal/mol
Thermal vibrational correction   ...      0.00916342 Eh       5.75 kcal/mol
Thermal rotational correction    ...      0.00141627 Eh       0.89 kcal/mol
Thermal translational correction ...      0.00141627 Eh       0.89 kcal/mol
-----------------------------------------------------------------------
Total thermal energy                   -647.31896006 Eh


Summary of corrections to the electronic energy:
(perhaps to be used in another calculation)
Total thermal correction                  0.01199596 Eh       7.53 kcal/mol
Non-thermal (ZPE) correction              0.15246294 Eh      95.67 kcal/mol
-----------------------------------------------------------------------
Total correction                          0.16445890 Eh     103.20 kcal/mol


--------
ENTHALPY
--------

The enthalpy is H = U + kB*T
                kB is Boltzmann's constant
Total thermal energy              ...   -647.31896006 Eh 
Thermal Enthalpy correction       ...      0.00094421 Eh       0.59 kcal/mol
-----------------------------------------------------------------------
Total Enthalpy                    ...   -647.31801585 Eh


Note: Only C1 symmetry has been detected, increase convergence thresholds 
      if your molecule has a higher symmetry. Symmetry factor of 1.0 is   
      used for the rotational entropy correction. 
 

Note: Rotational entropy computed according to Herzberg 
Infrared and Raman Spectra, Chapter V,1, Van Nostrand Reinhold, 1945 
Point Group:  C1, Symmetry Number:   1  
Rotational constants in cm-1:     0.036790     0.025121     0.016478 

Vibrational entropy computed according to the QRRHO of S. Grimme
Chem.Eur.J. 2012 18 9955 using a reference frequency of 100.0 cm-1


-------
ENTROPY
-------

The entropy contributions are T*S = T*(S(el)+S(vib)+S(rot)+S(trans))
     S(el)   - electronic entropy
     S(vib)  - vibrational entropy
     S(rot)  - rotational entropy
     S(trans)- translational entropy
The entropies will be listed as multiplied by the temperature to get
units of energy

Electronic entropy                ...      0.00000000 Eh      0.00 kcal/mol
Vibrational entropy               ...      0.01601909 Eh     10.05 kcal/mol
Rotational entropy                ...      0.01474738 Eh      9.25 kcal/mol
Translational entropy             ...      0.01970496 Eh     12.37 kcal/mol
-----------------------------------------------------------------------
Final entropy term                ...      0.05047143 Eh     31.67 kcal/mol

In case the symmetry of your molecule has not been determined correctly
or in case you have a reason to use a different symmetry number we print 
out the resulting rotational entropy values for sn=1,12:

 non-linear molecules -----------------------------------
|  sn= 1 | S(rot)=       0.01474738 Eh      9.25 kcal/mol|
|  sn= 2 | S(rot)=       0.01409292 Eh      8.84 kcal/mol|
|  sn= 3 | S(rot)=       0.01371009 Eh      8.60 kcal/mol|
|  sn= 4 | S(rot)=       0.01343846 Eh      8.43 kcal/mol|
|  sn= 5 | S(rot)=       0.01322778 Eh      8.30 kcal/mol|
|  sn= 6 | S(rot)=       0.01305563 Eh      8.19 kcal/mol|
|  sn= 7 | S(rot)=       0.01291008 Eh      8.10 kcal/mol|
|  sn= 8 | S(rot)=       0.01278401 Eh      8.02 kcal/mol|
|  sn= 9 | S(rot)=       0.01267280 Eh      7.95 kcal/mol|
|  sn=10 | S(rot)=       0.01257332 Eh      7.89 kcal/mol|
|  sn=11 | S(rot)=       0.01248333 Eh      7.83 kcal/mol|
|  sn=12 | S(rot)=       0.01240117 Eh      7.78 kcal/mol|
 linear molecules ---------------------------------------
|  Dinfh | S(rot)=       0.00920234 Eh      5.77 kcal/mol|
|  Cinfv | S(rot)=       0.00985680 Eh      6.19 kcal/mol|
 --------------------------------------------------------


-------------------
GIBBS FREE ENERGY
-------------------

The Gibbs free energy is G = H - T*S

Total enthalpy                    ...   -647.31801585 Eh 
Total entropy correction          ...     -0.05047143 Eh    -31.67 kcal/mol
-----------------------------------------------------------------------
Final Gibbs free energy         ...   -647.36848728 Eh

For completeness - the Gibbs free energy minus the electronic energy
G-E(el)                           ...      0.11493168 Eh     72.12 kcal/mol


Maximum memory used throughout the entire PROP-calculation: 40.5 MB

--------------------------------
SUGGESTED CITATIONS FOR THIS RUN
--------------------------------

Below you find a list of papers that are relevant to this ORCA run
We neither can nor want to force you to cite these papers, but we appreciate if you do
You receive ORCA, which is the product of decades of hard work by many enthusiastic individuals, for free
The only thing we kindly ask in return is that you cite our papers,
We deeply appreciate it, if you show your appreciation for ORCA by not just citing the generic ORCA reference.

Please note that relegating all ORCA citations to the supporting information does *not* help us.
SI sections are not indexed - citations you put there will not count into any citation statistics
But we need these citations in order to attract the funding resources that allow us to do what we are doing

Therefore, if you are a happy ORCA user, please consider citing a few of the papers listed below in the main body of your paper

In addition to the list printed below, the program has created the file /DiscorcaJobs/Orca/Job/aspirin_ftir/aspirin_ftir.bibtex that contains the list in bibtex format
You can import this file easily into all common literature databanks and citation aid programs


List of essential papers. We consider these as the minimum necessary citations

  1. Neese,F.
     Software update: the ORCA program system, version 5.0
     WIRES Comput. Molec. Sci., 2022 12(1)e1606
     doi.org/10.1002/wcms.1606

List of papers to cite with high priority. The work reported in these papers was absolutely
necessary for this run to complete.
Our perspective: the developers of density functionals and basis sets usually get cited in chemistry papers
Good! But without the algorithms to do something with them, the functionals or basis sets would not do anything.
Hence, in our opinion, the algorithm design and method developments papers are equally worthy of getting cited

  1. Neese,F.
     An improvement of the resolution of the identity approximation for the formation of the Coulomb matrix
     J. Comp. Chem., 2003 24(14)1740-1747
     doi.org/10.1002/jcc.10318
  2. Bykov,D.; Petrenko,T.; Izsak,R.; Kossmann,S.; Becker,U.; Valeev,E.; Neese,F.
     Efficient implementation of the analytic second derivatives of Hartree-Fock and hybrid DFT energies: a detailed analysis of different approximations
     Molec. Phys., 2015 113 1961-1977
     doi.org/10.1080/00268976.2015.1025114
  3. Neese,F.
     The SHARK Integral Generation and Digestion System
     J. Comp. Chem., 2022  1-16
     doi.org/10.1002/jcc.26942

List of suggested additional citations. These are papers that are important in the 'surrounding' of 
of this run, or papers that preceded the highly important papers. If you like your results we are grateful for a citation.

  1. Neese,F.
     The ORCA program system
     WIRES Comput. Molec. Sci., 2012 2(1)73-78
     doi.org/10.1002/wcms.81
  2. Neese,F.
     Software update: the ORCA program system, version 4.0
     WIRES Comput. Molec. Sci., 2018 8(1)1-6
     doi.org/10.1002/wcms.1327
  3. Neese,F.; Wennmohs,F.; Becker,U.; Riplinger,C.
     The ORCA quantum chemistry program package
     J. Chem. Phys., 2020 152 Art. No. L224108
     doi.org/10.1063/5.0004608

List of optional additional citations

  1. Neese,F.
     Approximate second-order SCF convergence for spin unrestricted wavefunctions
     Chem. Phys. Lett., 2000 325(1-3)93-98
     doi.org/10.1016/s0009-2614(00)00662-x

Timings for individual modules:

Sum of individual times          ...      121.567 sec (=   2.026 min)
Startup calculation              ...        1.692 sec (=   0.028 min)   1.4 %
SCF iterations                   ...        7.802 sec (=   0.130 min)   6.4 %
Property integrals               ...       46.116 sec (=   0.769 min)  37.9 %
SCF Response                     ...       26.515 sec (=   0.442 min)  21.8 %
Property calculations            ...       39.440 sec (=   0.657 min)  32.4 %
                             ****ORCA TERMINATED NORMALLY****
TOTAL RUN TIME: 0 days 0 hours 2 minutes 2 seconds 49 msec
