
                                 *****************
                                 * O   R   C   A *
                                 *****************

                                            #,                                       
                                            ###                                      
                                            ####                                     
                                            #####                                    
                                            ######                                   
                                           ########,                                 
                                     ,,################,,,,,                         
                               ,,#################################,,                 
                          ,,##########################################,,             
                       ,#########################################, ''#####,          
                    ,#############################################,,   '####,        
                  ,##################################################,,,,####,       
                ,###########''''           ''''###############################       
              ,#####''   ,,,,##########,,,,          '''####'''          '####       
            ,##' ,,,,###########################,,,                        '##       
           ' ,,###''''                  '''############,,,                           
         ,,##''                                '''############,,,,        ,,,,,,###''
      ,#''                                            '''#######################'''  
     '                                                          ''''####''''         
             ,#######,   #######,   ,#######,      ##                                
            ,#'     '#,  ##    ##  ,#'     '#,    #''#        ,####,   ,####,        
            ##       ##  ##   ,#'  ##            #'  '#       #'       #'  '#        
            ##       ##  #######   ##           ,######,      #####,   #    #        
            '#,     ,#'  ##    ##  '#,     ,#' ,#      #,     #,   #   #,  ,#        
             '#######'   ##     ##  '#######'  #'      '#     '####' # '####'        



                #########################################################
                #                        -***-                          #
                #          Department of theory and spectroscopy        #
                #                                                       #
                #                      Frank Neese                      #
                #                                                       #
                #     Directorship, Architecture, Infrastructure        #
                #                    SHARK, DRIVERS                     #
                #        Core code/Algorithms in most modules           #
                #                                                       #
                #        Max Planck Institute fuer Kohlenforschung      #
                #                Kaiser Wilhelm Platz 1                 #
                #                 D-45470 Muelheim/Ruhr                 #
                #                      Germany                          #
                #                                                       #
                #                  All rights reserved                  #
                #                        -***-                          #
                #########################################################


                         Program Version 6.0.0  -   RELEASE  -


 With contributions from (in alphabetic order):
   Daniel Aravena         : Magnetic Suceptibility
   Michael Atanasov       : Ab Initio Ligand Field Theory (pilot matlab implementation)
   Alexander A. Auer      : GIAO ZORA, VPT2 properties, NMR spectrum
   Ute Becker             : All parallelization in ORCA, NUMFREQ, NUMCALC
   Giovanni Bistoni       : ED, misc. LED, open-shell LED, HFLD
   Martin Brehm           : Molecular dynamics
   Dmytro Bykov           : pre 5.0 version of the SCF Hessian
   Marcos Casanova-Páez   : Triplet and SCS-CIS(D). UHF-(DLPNO)-IP/EA/STEOM-CCSD. UHF-CVS-IP/STEOM-CCSD
   Vijay G. Chilkuri      : MRCI spin determinant printing, contributions to CSF-ICE
   Pauline Colinet        : FMM embedding
   Dipayan Datta          : RHF DLPNO-CCSD density
   Achintya Kumar Dutta   : EOM-CC, STEOM-CC
   Nicolas Foglia         : Exact transition moments, OPA infrastructure, MCD improvements
   Dmitry Ganyushin       : Spin-Orbit,Spin-Spin,Magnetic field MRCI
   Miquel Garcia          : C-PCM and meta-GGA Hessian, CCSD/C-PCM, Gaussian charge scheme
   Tiago L. C. Gouveia    : GS-ROHF, GS-ROCIS
   Yang Guo               : DLPNO-NEVPT2, F12-NEVPT2, CIM, IAO-localization
   Andreas Hansen         : Spin unrestricted coupled pair/coupled cluster methods
   Ingolf Harden          : AUTO-CI MPn and infrastructure 
   Benjamin Helmich-Paris : MC-RPA, TRAH-(SCF,CASSCF), AVAS, COSX integrals, SCF dyn. polar.
   Lee Huntington         : MR-EOM, pCC
   Robert Izsak           : Overlap fitted RIJCOSX, COSX-SCS-MP3, EOM
   Riya Kayal             : Wick's Theorem for AUTO-CI, AUTO-CI UHF-CCSDT
   Emily Kempfer          : AUTO-CI, RHF CISDT and CCSDT
   Christian Kollmar      : KDIIS, OOCD, Brueckner-CCSD(T), CCSD density, CASPT2, CASPT2-K, improved NEVPT2
   Axel Koslowski         : Symmetry handling
   Simone Kossmann        : Meta GGA functionals, TD-DFT gradient, OOMP2, (MP2 Hessian; deprecated post 5.0)
   Lucas Lang             : DCDCAS
   Marvin Lechner         : AUTO-CI (C++ implementation), FIC-MRCC
   Spencer Leger          : CASSCF response
   Dagmar Lenk            : GEPOL surface, SMD, ORCA-2-JSON
   Dimitrios Liakos       : Extrapolation schemes; Compound Job, initial MDCI parallelization
   Dimitrios Manganas     : Further ROCIS development; embedding schemes. LFT, Crystal Embedding
   Dimitrios Pantazis     : SARC Basis sets
   Anastasios Papadopoulos: AUTO-CI, single reference methods and gradients
   Taras Petrenko         : pre 6.0 DFT Hessian and TD-DFT gradient, (ASA, deprecated), ECA, 1-Electron XAS/XES, NRVS
   Peter Pinski           : DLPNO-MP2, DLPNO-MP2 Gradient
   Christoph Reimann      : Effective Core Potentials
   Marius Retegan         : Local ZFS, SOC
   Christoph Riplinger    : Optimizer, TS searches, QM/MM, DLPNO-CCSD(T), (RO)-DLPNO pert. Triples
   Michael Roemelt        : Original ROCIS implementation
   Masaaki Saitow         : Open-shell DLPNO-CCSD energy and density
   Barbara Sandhoefer     : DKH picture change effects
   Kantharuban Sivalingam : CASSCF convergence/infrastructure, NEVPT2 and variants, FIC-MRCI
   Bernardo de Souza      : ESD, SOC TD-DFT
   Georgi Stoychev        : AutoAux, RI-MP2 NMR, DLPNO-MP2 response, X2C
   Van Anh Tran           : RI-MP2 g-tensors
   Willem Van den Heuvel  : Paramagnetic NMR
   Zikuan Wang            : NOTCH, Electric field optimization 
   Frank Wennmohs         : Technical directorship and infrastructure
   Hang Xu                : AUTO-CI-Response properties 


 We gratefully acknowledge several colleagues who have allowed us to
 interface, adapt or use parts of their codes:
   Stefan Grimme, W. Hujo, H. Kruse, P. Pracht,  : VdW corrections, initial TS optimization,
                  C. Bannwarth, S. Ehlert,         DFT functionals, gCP, sTDA/sTD-DF
                  L. Wittmann, M. Mueller
   Ed Valeev, F. Pavosevic, A. Kumar             : LibInt (2-el integral package), F12 methods
   Garnet Chan, S. Sharma, J. Yang, R. Olivares  : DMRG
   Ulf Ekstrom                                   : XCFun DFT Library
   Mihaly Kallay                                 : mrcc  (arbitrary order and MRCC methods)
   Frank Weinhold                                : gennbo (NPA and NBO analysis)
   Simon Mueller                                 : openCOSMO-RS
   Christopher J. Cramer and Donald G. Truhlar   : smd solvation model
   Lars Goerigk                                  : TD-DFT with DH, B97 family of functionals
   V. Asgeirsson, H. Jonsson                     : NEB implementation
   FAccTs GmbH                                   : IRC, NEB, NEB-TS, DLPNO-Multilevel, CI-OPT
                                                   MM, QMMM, 2- and 3-layer-ONIOM, Crystal-QMMM,
                                                   LR-CPCM, SF, NACMEs, symmetry and pop. for TD-DFT,
                                                   nearIR, NL-DFT gradient (VV10), updates on ESD,
                                                   ML-optimized integration grids, MBIS, APM,
                                                   GOAT, DOCKER, SOLVATOR, interface openCOSMO-RS
   S Lehtola, MJT Oliveira, MAL Marques          : LibXC Library
   Liviu Ungur et al                             : ANISO software


 Your calculation uses the libint2 library for the computation of 2-el integrals
 For citations please refer to: http://libint.valeyev.net

 Your ORCA version has been built with support for libXC version: 6.2.2
 For citations please refer to: https://libxc.gitlab.io

 This ORCA versions uses:
   CBLAS   interface :  Fast vector & matrix operations
   LAPACKE interface :  Fast linear algebra routines
   SCALAPACK package :  Parallel linear algebra routines
   Shared memory     :  Shared parallel matrices
   BLAS/LAPACK       :  OpenBLAS 0.3.27  USE64BITINT DYNAMIC_ARCH NO_AFFINITY Haswell SINGLE_THREADED
        Core in use  :  Haswell
   Copyright (c) 2011-2014, The OpenBLAS Project


Warning: RI is on but no J-basis has been assigned. Assigning Def2/J (nothing to worry about!)
================================================================================

----- Orbital basis set information -----
Your calculation utilizes the basis: def2-TZVP
   F. Weigend and R. Ahlrichs, Phys. Chem. Chem. Phys. 7, 3297 (2005).

----- AuxJ basis set information -----
Your calculation utilizes the auxiliary basis: def2/J
   F. Weigend, Phys. Chem. Chem. Phys. 8, 1057 (2006).

================================================================================
                                        WARNINGS
                       Please study these warnings very carefully!
================================================================================


WARNING: Geometry Optimization
  ===> : Switching off AutoStart
         For restart on a previous wavefunction, please use MOREAD

================================================================================
                                       INPUT FILE
================================================================================
NAME = /OrcaJobs/CPDMSA_opt/CPDMSA_opt.inp
|  1> !OPT TPSS def2-TZVP FREQ PAL8
|  2> 
|  3> *xyz 0 1 
|  4> C         -5.10193        1.81173        0.19707
|  5> C         -4.04777        2.38571        0.21927
|  6> H         -6.03601        1.29826        0.17559
|  7> Si        -2.38225        3.26965        0.24337
|  8> C         -1.20476        2.32608       -0.93196
|  9> C         -1.67891        3.25782        1.97903
| 10> C         -2.58203        5.03340       -0.35231
| 11> H         -2.92810        5.05674       -1.38993
| 12> H         -1.63144        5.57230       -0.29777
| 13> H         -3.31125        5.56969        0.26255
| 14> H         -1.49822        2.23347        2.31817
| 15> H         -2.37160        3.73241        2.68069
| 16> H         -0.73087        3.80246        2.01838
| 17> H         -1.17680        1.28296       -0.59511
| 18> C          0.22350        2.87062       -1.02388
| 19> H         -1.66359        2.33115       -1.92783
| 20> H          0.68989        2.87505       -0.02991
| 21> H          0.20872        3.91439       -1.36441
| 22> C          1.06793        2.02872       -1.98358
| 23> H          1.07749        0.98413       -1.65123
| 24> C          2.44659        2.52931       -2.05735
| 25> H          0.61931        2.04412       -2.98365
| 26> N          3.53642        2.92328       -2.11490
| 27> **                         ****END OF INPUT****
================================================================================

                       *****************************
                       * Geometry Optimization Run *
                       *****************************

Geometry optimization settings:
Update method            Update   .... BFGS
Choice of coordinates    CoordSys .... (2022) Redundant Internals
Initial Hessian          InHess   .... Almloef's Model
Max. no of cycles        MaxIter  .... 69

Convergence Tolerances:
Energy Change            TolE     ....  5.0000e-06 Eh
Max. Gradient            TolMAXG  ....  3.0000e-04 Eh/bohr
RMS Gradient             TolRMSG  ....  1.0000e-04 Eh/bohr
Max. Displacement        TolMAXD  ....  4.0000e-03 bohr
RMS Displacement         TolRMSD  ....  2.0000e-03 bohr
Strict Convergence                .... False

------------------------------------------------------------------------------
                        ORCA OPTIMIZATION COORDINATE SETUP
------------------------------------------------------------------------------

The optimization will be done in redundant internal coordinates (2022)
Making redundant internal coordinates   ...  (2022 redundants) done
Evaluating the initial hessian          ...  (Almloef) done
Evaluating the coordinates              ...  done
Calculating the B-matrix                .... done
Calculating the G-matrix                .... done
Diagonalizing the G-matrix              .... done
Small eigenvalue found = 9.165e-03
Small eigenvalue found = 2.143e-02
The first mode is                       ....   38
The number of degrees of freedom        ....   63

    -----------------------------------------------------------------
                    Redundant Internal Coordinates


    -----------------------------------------------------------------
         Definition                    Initial Value    Approx d2E/dq
    -----------------------------------------------------------------
      1. B(C   1,C   0)                  1.2005         1.253356   
      2. B(H   2,C   0)                  1.0661         0.393113   
      3. B(Si  3,C   1)                  1.8857         0.439588   
      4. B(C   4,Si  3)                  1.9126         0.398169   
      5. B(C   5,Si  3)                  1.8728         0.460948   
      6. B(C   6,Si  3)                  1.8723         0.461755   
      7. B(H   7,C   6)                  1.0941         0.354771   
      8. B(H   8,C   6)                  1.0941         0.354744   
      9. B(H   9,C   6)                  1.0943         0.354499   
     10. B(H  10,C   5)                  1.0941         0.354775   
     11. B(H  11,C   5)                  1.0942         0.354522   
     12. B(H  12,C   5)                  1.0941         0.354773   
     13. B(H  13,C   4)                  1.0965         0.351582   
     14. B(C  14,C   4)                  1.5313         0.371786   
     15. B(H  15,C   4)                  1.0965         0.351606   
     16. B(H  16,C  14)                  1.0980         0.349723   
     17. B(H  17,C  14)                  1.0980         0.349653   
     18. B(C  18,C  14)                  1.5306         0.372687   
     19. B(H  19,C  18)                  1.0962         0.351954   
     20. B(C  20,C  18)                  1.4686         0.468128   
     21. B(H  21,C  18)                  1.0962         0.352001   
     22. B(N  22,C  20)                  1.1603         1.301296   
     23. L(C   1,C   0,H   2, 2)       180.1109         0.404692   
     24. L(C   1,C   0,H   2, 1)       179.7700         0.404692   
     25. L(C   0,C   1,Si  3,C   4, 1) 179.3221         0.501482   
     26. L(C   0,C   1,Si  3,C   4, 2) 180.2455         0.501482   
     27. A(C   1,Si  3,C   5)          109.9127         0.451407   
     28. A(C   4,Si  3,C   5)          109.5839         0.443380   
     29. A(C   4,Si  3,C   6)          109.5671         0.443521   
     30. A(C   1,Si  3,C   6)          110.0761         0.451551   
     31. A(C   1,Si  3,C   4)          107.7366         0.439595   
     32. A(C   5,Si  3,C   6)          109.9304         0.455465   
     33. A(H  13,C   4,C  14)          109.4476         0.322793   
     34. A(Si  3,C   4,H  15)          107.3506         0.350635   
     35. A(C  14,C   4,H  15)          109.5196         0.322797   
     36. A(Si  3,C   4,C  14)          115.8274         0.395352   
     37. A(H  13,C   4,H  15)          107.1022         0.288667   
     38. A(Si  3,C   4,H  13)          107.2314         0.350631   
     39. A(H  11,C   5,H  12)          108.0332         0.289450   
     40. A(H  10,C   5,H  12)          108.1699         0.289482   
     41. A(Si  3,C   5,H  12)          110.8316         0.360000   
     42. A(H  10,C   5,H  11)          108.1713         0.289450   
     43. A(Si  3,C   5,H  11)          110.7196         0.359956   
     44. A(Si  3,C   5,H  10)          110.8073         0.360000   
     45. A(H   7,C   6,H   9)          108.1591         0.289447   
     46. A(Si  3,C   6,H   9)          110.7329         0.360059   
     47. A(H   7,C   6,H   8)          108.1559         0.289478   
     48. A(Si  3,C   6,H   8)          110.8199         0.360102   
     49. A(Si  3,C   6,H   7)          110.8295         0.360106   
     50. A(H   8,C   6,H   9)          108.0346         0.289443   
     51. A(H  16,C  14,H  17)          106.4179         0.288176   
     52. A(C   4,C  14,H  17)          110.1268         0.322502   
     53. A(C   4,C  14,H  16)          110.0773         0.322513   
     54. A(H  17,C  14,C  18)          109.6232         0.322630   
     55. A(H  16,C  14,C  18)          109.6019         0.322641   
     56. A(C   4,C  14,C  18)          110.8916         0.362906   
     57. A(C  20,C  18,H  21)          109.4861         0.335376   
     58. A(H  19,C  18,H  21)          107.0704         0.288766   
     59. A(C  14,C  18,H  21)          109.7859         0.322984   
     60. A(H  19,C  18,C  20)          109.3812         0.335369   
     61. A(C  14,C  18,C  20)          111.2176         0.377570   
     62. A(C  14,C  18,H  19)          109.8064         0.322977   
     63. L(C  18,C  20,N  22,C  14, 2) 179.8603         0.468815   
     64. L(C  18,C  20,N  22,C  14, 1) 180.0375         0.468815   
     65. D(C  14,C   4,Si  3,C   1)   -178.4287         0.003222   
     66. D(H  13,C   4,Si  3,C   1)    -55.9224         0.003222   
     67. D(C  14,C   4,Si  3,C   6)     61.8241         0.003222   
     68. D(H  13,C   4,Si  3,C   6)   -175.6696         0.003222   
     69. D(H  13,C   4,Si  3,C   5)     63.6374         0.003222   
     70. D(C  14,C   4,Si  3,C   5)    -58.8689         0.003222   
     71. D(H  15,C   4,Si  3,C   5)    178.4389         0.003222   
     72. D(H  15,C   4,Si  3,C   1)     58.8791         0.003222   
     73. D(H  11,C   5,Si  3,C   6)     63.4737         0.003821   
     74. D(H  11,C   5,Si  3,C   1)    -57.8388         0.003821   
     75. D(H  11,C   5,Si  3,C   4)   -176.0540         0.003821   
     76. D(H  12,C   5,Si  3,C   1)   -177.7099         0.003821   
     77. D(H  10,C   5,Si  3,C   6)   -176.4979         0.003821   
     78. D(H  10,C   5,Si  3,C   4)    -56.0256         0.003821   
     79. D(H  10,C   5,Si  3,C   1)     62.1896         0.003821   
     80. D(H  12,C   5,Si  3,C   4)     64.0749         0.003821   
     81. D(H   9,C   6,Si  3,C   4)    175.7084         0.003830   
     82. D(H   8,C   6,Si  3,C   5)     56.0647         0.003830   
     83. D(H   8,C   6,Si  3,C   4)    -64.4177         0.003830   
     84. D(H   8,C   6,Si  3,C   1)    177.2793         0.003830   
     85. D(H   7,C   6,Si  3,C   5)    176.1544         0.003830   
     86. D(H   9,C   6,Si  3,C   1)     57.4054         0.003830   
     87. D(H   7,C   6,Si  3,C   4)     55.6720         0.003830   
     88. D(H   7,C   6,Si  3,C   1)    -62.6310         0.003830   
     89. D(H  17,C  14,C   4,H  15)     62.6431         0.011043   
     90. D(H  17,C  14,C   4,H  13)    179.7761         0.011043   
     91. D(H  17,C  14,C   4,Si  3)    -58.8972         0.011043   
     92. D(H  16,C  14,C   4,H  15)    179.6725         0.011043   
     93. D(H  16,C  14,C   4,H  13)    -63.1944         0.011043   
     94. D(H  16,C  14,C   4,Si  3)     58.1323         0.011043   
     95. D(H  19,C  18,C  14,C   4)    -57.6954         0.011094   
     96. D(H  21,C  18,C  14,C   4)     59.7654         0.011094   
     97. D(C  20,C  18,C  14,H  17)     59.2836         0.011094   
     98. D(C  20,C  18,C  14,H  16)    -57.1718         0.011094   
     99. D(C  20,C  18,C  14,C   4)   -178.9059         0.011094   
    100. D(H  19,C  18,C  14,H  17)   -179.5059         0.011094   
    101. D(H  19,C  18,C  14,H  16)     64.0388         0.011094   
    -----------------------------------------------------------------

Number of atoms                         .... 23
Number of degrees of freedom            .... 101


         *************************************************************
         *                GEOMETRY OPTIMIZATION CYCLE   1            *
         *************************************************************
---------------------------------
CARTESIAN COORDINATES (ANGSTROEM)
---------------------------------
  C     -5.101930    1.811730    0.197070
  C     -4.047770    2.385710    0.219270
  H     -6.036010    1.298260    0.175590
  Si    -2.382250    3.269650    0.243370
  C     -1.204760    2.326080   -0.931960
  C     -1.678910    3.257820    1.979030
  C     -2.582030    5.033400   -0.352310
  H     -2.928100    5.056740   -1.389930
  H     -1.631440    5.572300   -0.297770
  H     -3.311250    5.569690    0.262550
  H     -1.498220    2.233470    2.318170
  H     -2.371600    3.732410    2.680690
  H     -0.730870    3.802460    2.018380
  H     -1.176800    1.282960   -0.595110
  C      0.223500    2.870620   -1.023880
  H     -1.663590    2.331150   -1.927830
  H      0.689890    2.875050   -0.029910
  H      0.208720    3.914390   -1.364410
  C      1.067930    2.028720   -1.983580
  H      1.077490    0.984130   -1.651230
  C      2.446590    2.529310   -2.057350
  H      0.619310    2.044120   -2.983650
  N      3.536420    2.923280   -2.114900

----------------------------
CARTESIAN COORDINATES (A.U.)
----------------------------
  NO LB      ZA    FRAG     MASS         X           Y           Z
   0 C     6.0000    0    12.011   -9.641250    3.423674    0.372408
   1 C     6.0000    0    12.011   -7.649177    4.508339    0.414360
   2 H     1.0000    0     1.008  -11.406406    2.453356    0.331817
   3 Si   14.0000    0    28.086   -4.501800    6.178743    0.459903
   4 C     6.0000    0    12.011   -2.276666    4.395654   -1.761149
   5 C     6.0000    0    12.011   -3.172680    6.156388    3.739825
   6 C     6.0000    0    12.011   -4.879330    9.511748   -0.665769
   7 H     1.0000    0     1.008   -5.533307    9.555854   -2.626587
   8 H     1.0000    0     1.008   -3.082975   10.530121   -0.562704
   9 H     1.0000    0     1.008   -6.257356   10.525189    0.496148
  10 H     1.0000    0     1.008   -2.831225    4.220647    4.380706
  11 H     1.0000    0     1.008   -4.481674    7.053233    5.065770
  12 H     1.0000    0     1.008   -1.381144    7.185608    3.814185
  13 H     1.0000    0     1.008   -2.223830    2.424443   -1.124595
  14 C     6.0000    0    12.011    0.422354    5.424686   -1.934853
  15 H     1.0000    0     1.008   -3.143729    4.405235   -3.643071
  16 H     1.0000    0     1.008    1.303703    5.433057   -0.056522
  17 H     1.0000    0     1.008    0.394424    7.397125   -2.578361
  18 C     6.0000    0    12.011    2.018095    3.833725   -3.748423
  19 H     1.0000    0     1.008    2.036161    1.859736   -3.120372
  20 C     6.0000    0    12.011    4.623385    4.779703   -3.887828
  21 H     1.0000    0     1.008    1.170326    3.862827   -5.638281
  22 N     7.0000    0    14.007    6.682865    5.524199   -3.996582

--------------------------------
INTERNAL COORDINATES (ANGSTROEM)
--------------------------------
 C      0   0   0     0.000000000000     0.00000000     0.00000000
 C      1   0   0     1.200499556851     0.00000000     0.00000000
 H      1   2   0     1.066123012462   179.75122317     0.00000000
 Si     2   1   3     1.885706128749   179.30632618     5.73043508
 C      4   2   1     1.912644152450   107.73663967    12.33082714
 C      4   2   1     1.872790095045   109.91273492   252.97999270
 C      4   2   1     1.872314282726   110.07613585   131.75481649
 H      7   4   2     1.094058711816   110.82945822   297.36899928
 H      7   4   2     1.094079142338   110.81990446   177.27932931
 H      7   4   2     1.094267605342   110.73293162    57.40539140
 H      6   4   2     1.094055637616   110.80731872    62.18958361
 H      6   4   2     1.094249450445   110.71961925   302.16120136
 H      6   4   2     1.094057125428   110.83162024   182.29007174
 H      5   4   2     1.096516766174   107.23136980   304.07758903
 C      5   4   2     1.531306542009   115.82743282   181.57125537
 H      5   4   2     1.096497939214   107.35055675    58.87905993
 H     15   5   4     1.097959752404   110.07725898    58.13225869
 H     15   5   4     1.098014090165   110.12679106   301.10283112
 C     15   5   4     1.530647485511   110.89157936   179.58753109
 H     19  15   5     1.096228162473   109.80636032   302.30464734
 C     19  15   5     1.468582907636   111.21756864   181.09407630
 H     19  15   5     1.096192076828   109.78587948    59.76535699
 N     21  19  15     1.160281772803   179.91121135   115.06144153

---------------------------
INTERNAL COORDINATES (A.U.)
---------------------------
 C      0   0   0     0.000000000000     0.00000000     0.00000000
 C      1   0   0     2.268615386343     0.00000000     0.00000000
 H      1   2   0     2.014680518623   179.75122317     0.00000000
 Si     2   1   3     3.563468152392   179.30632618     5.73043508
 C      4   2   1     3.614373639776   107.73663967    12.33082714
 C      4   2   1     3.539060385956   109.91273492   252.97999270
 C      4   2   1     3.538161230981   110.07613585   131.75481649
 H      7   4   2     2.067471339762   110.82945822   297.36899928
 H      7   4   2     2.067509947855   110.81990446   177.27932931
 H      7   4   2     2.067866091317   110.73293162    57.40539140
 H      6   4   2     2.067465530367   110.80731872    62.18958361
 H      6   4   2     2.067831783536   110.71961925   302.16120136
 H      6   4   2     2.067468341924   110.83162024   182.29007174
 H      5   4   2     2.072116389321   107.23136980   304.07758903
 C      5   4   2     2.893749991479   115.82743282   181.57125537
 H      5   4   2     2.072080811523   107.35055675    58.87905993
 H     15   5   4     2.074843238112   110.07725898    58.13225869
 H     15   5   4     2.074945921598   110.12679106   301.10283112
 C     15   5   4     2.892504555190   110.89157936   179.58753109
 H     19  15   5     2.071571007367   109.80636032   302.30464734
 C     19  15   5     2.775219500389   111.21756864   181.09407630
 H     19  15   5     2.071502815379   109.78587948    59.76535699
 N     21  19  15     2.192614788779   179.91121135   115.06144153

---------------------
BASIS SET INFORMATION
---------------------
There are 4 groups of distinct atoms

 Group   1 Type C   : 11s6p2d1f contracted to 5s3p2d1f pattern {62111/411/11/1}
 Group   2 Type H   : 5s1p contracted to 3s1p pattern {311/1}
 Group   3 Type Si  : 14s9p3d1f contracted to 5s5p2d1f pattern {73211/51111/21/1}
 Group   4 Type N   : 11s6p2d1f contracted to 5s3p2d1f pattern {62111/411/11/1}

Atom   0C    basis set group =>   1
Atom   1C    basis set group =>   1
Atom   2H    basis set group =>   2
Atom   3Si   basis set group =>   3
Atom   4C    basis set group =>   1
Atom   5C    basis set group =>   1
Atom   6C    basis set group =>   1
Atom   7H    basis set group =>   2
Atom   8H    basis set group =>   2
Atom   9H    basis set group =>   2
Atom  10H    basis set group =>   2
Atom  11H    basis set group =>   2
Atom  12H    basis set group =>   2
Atom  13H    basis set group =>   2
Atom  14C    basis set group =>   1
Atom  15H    basis set group =>   2
Atom  16H    basis set group =>   2
Atom  17H    basis set group =>   2
Atom  18C    basis set group =>   1
Atom  19H    basis set group =>   2
Atom  20C    basis set group =>   1
Atom  21H    basis set group =>   2
Atom  22N    basis set group =>   4
---------------------------------
AUXILIARY/J BASIS SET INFORMATION
---------------------------------
There are 4 groups of distinct atoms

 Group   1 Type C   : 12s5p4d2f1g contracted to 6s4p3d1f1g pattern {711111/2111/211/2/1}
 Group   2 Type H   : 5s2p1d contracted to 3s1p1d pattern {311/2/1}
 Group   3 Type Si  : 14s5p5d2f1g contracted to 8s4p3d1f1g pattern {71111111/2111/311/2/1}
 Group   4 Type N   : 12s5p4d2f1g contracted to 6s4p3d1f1g pattern {711111/2111/211/2/1}

Atom   0C    basis set group =>   1
Atom   1C    basis set group =>   1
Atom   2H    basis set group =>   2
Atom   3Si   basis set group =>   3
Atom   4C    basis set group =>   1
Atom   5C    basis set group =>   1
Atom   6C    basis set group =>   1
Atom   7H    basis set group =>   2
Atom   8H    basis set group =>   2
Atom   9H    basis set group =>   2
Atom  10H    basis set group =>   2
Atom  11H    basis set group =>   2
Atom  12H    basis set group =>   2
Atom  13H    basis set group =>   2
Atom  14C    basis set group =>   1
Atom  15H    basis set group =>   2
Atom  16H    basis set group =>   2
Atom  17H    basis set group =>   2
Atom  18C    basis set group =>   1
Atom  19H    basis set group =>   2
Atom  20C    basis set group =>   1
Atom  21H    basis set group =>   2
Atom  22N    basis set group =>   4


           ************************************************************
           *        Program running with 8 parallel MPI-processes     *
           *              working on a common directory               *
           ************************************************************
------------------------------------------------------------------------------
                             ORCA STARTUP CALCULATIONS
                           -- RI-GTO INTEGRALS CHOSEN --
------------------------------------------------------------------------------
------------------------------------------------------------------------------
                   ___                                                        
                  /   \      - P O W E R E D   B Y -                         
                 /     \                                                     
                 |  |  |   _    _      __       _____    __    __             
                 |  |  |  | |  | |    /  \     |  _  \  |  |  /  |          
                  \  \/   | |  | |   /    \    | | | |  |  | /  /          
                 / \  \   | |__| |  /  /\  \   | |_| |  |  |/  /          
                |  |  |   |  __  | /  /__\  \  |    /   |      \           
                |  |  |   | |  | | |   __   |  |    \   |  |\   \          
                \     /   | |  | | |  |  |  |  | |\  \  |  | \   \       
                 \___/    |_|  |_| |__|  |__|  |_| \__\ |__|  \__/        
                                                                              
                      - O R C A' S   B I G   F R I E N D -                    
                                      &                                       
                       - I N T E G R A L  F E E D E R -                       
                                                                              
 v1 FN, 2020, v2 2021, v3 2022-2024                                           
------------------------------------------------------------------------------


----------------------
SHARK INTEGRAL PACKAGE
----------------------

Number of atoms                             ...     23
Number of basis functions                   ...    394
Number of shells                            ...    164
Maximum angular momentum                    ...      3
Integral batch strategy                     ... SHARK/LIBINT Hybrid
RI-J (if used) integral strategy            ... SPLIT-RIJ (Revised 2003 algorithm where possible)
Printlevel                                  ...      1
Contraction scheme used                     ... SEGMENTED contraction
Prescreening option                         ... SCHWARTZ
   Thresh                                   ... 2.500e-11
   Tcut                                     ... 2.500e-12
   Tpresel                                  ... 2.500e-12 
Coulomb Range Separation                    ... NOT USED
Exchange Range Separation                   ... NOT USED
Multipole approximations                    ... NOT USED
Finite Nucleus Model                        ... NOT USED
CABS basis                                  ... NOT available
Auxiliary Coulomb fitting basis             ... AVAILABLE
   # of basis functions in Aux-J            ...    635
   # of shells in Aux-J                     ...    217
   Maximum angular momentum in Aux-J        ...      4
Auxiliary J/K fitting basis                 ... NOT available
Auxiliary Correlation fitting basis         ... NOT available
Auxiliary 'external' fitting basis          ... NOT available

Checking pre-screening integrals            ... done (  0.0 sec) Dimension = 164
Check shell pair data                       ... done (  0.0 sec)
Shell pair information
Shell pair cut-off parameter TPreSel        ...   2.5e-12
Total number of shell pairs                 ...     13530
Shell pairs after pre-screening             ...     11085
Total number of primitive shell pairs       ...     41028
Primitive shell pairs kept                  ...     23900
          la=0 lb=0:   3228 shell pairs
          la=1 lb=0:   3325 shell pairs
          la=1 lb=1:    899 shell pairs
          la=2 lb=0:   1433 shell pairs
          la=2 lb=1:    764 shell pairs
          la=2 lb=2:    174 shell pairs
          la=3 lb=0:    701 shell pairs
          la=3 lb=1:    363 shell pairs
          la=3 lb=2:    156 shell pairs
          la=3 lb=3:     42 shell pairs

Calculating one electron integrals          ... done (  0.0 sec)
Calculating RI/J V-Matrix + Cholesky decomp.... done (  0.0 sec)
Calculating Nuclear repulsion               ... done (  0.0 sec) ENN=    540.419755042668 Eh

Diagonalization of the overlap matrix:
Smallest eigenvalue                        ... 2.277e-05
Time for diagonalization                   ...    0.031 sec
Threshold for overlap eigenvalues          ... 1.000e-07
Number of eigenvalues below threshold      ... 0
Time for construction of square roots      ...    0.012 sec
Total time needed                          ...    0.044 sec

-------------------
DFT GRID GENERATION
-------------------

General Integration Accuracy     IntAcc      ... 4.388
Radial Grid Type                 RadialGrid  ... OptM3 with GC (2021)
Angular Grid (max. ang.)         AngularGrid ... 4 (Lebedev-302)
Angular grid pruning method      GridPruning ... 4 (adaptive)
Weight generation scheme         WeightScheme... mBecke (2022)
Basis function cutoff            BFCut       ... 1.0000e-11
Integration weight cutoff        WCut        ... 1.0000e-14
Partially contracted basis set               ... off
Rotationally invariant grid construction     ... off
Angular grids for H and He will be reduced by one unit

Total number of grid points                  ...   103151
Total number of batches                      ...     1625
Average number of points per batch           ...       63
Average number of grid points per atom       ...     4485
Initializing property integral containers    ... done (  0.0 sec)

SHARK setup successfully completed in   1.4 seconds

Maximum memory used throughout the entire STARTUP-calculation: 36.4 MB


           ************************************************************
           *        Program running with 8 parallel MPI-processes     *
           *              working on a common directory               *
           ************************************************************
-------------------------------------------------------------------------------
                                 ORCA GUESS
                   Start orbitals & Density for SCF / CASSCF
-------------------------------------------------------------------------------

------------
SCF SETTINGS
------------
Hamiltonian:
 Density Functional     Method          .... DFT(GTOs)
 Exchange Functional    Exchange        .... TPSS
 Correlation Functional Correlation     .... TPSS
 LDA part of GGA corr.  LDAOpt          .... PW91-LDA
 Gradients option       PostSCFGGA      .... off
   NL short-range parameter             ....  5.000000
 RI-approximation to the Coulomb term is turned on
   Number of AuxJ basis functions       .... 635


General Settings:
 Integral files         IntName         .... /OrcaJobs/CPDMSA_opt/CPDMSA_opt
 Hartree-Fock type      HFTyp           .... RHF
 Total Charge           Charge          ....    0
 Multiplicity           Mult            ....    1
 Number of Electrons    NEL             ....   82
 Basis Dimension        Dim             ....  394
 Nuclear Repulsion      ENuc            ....    540.4197550427 Eh

Convergence Acceleration:
 AO-DIIS                CNVDIIS         .... on
   Start iteration      DIISMaxIt       ....    12
   Startup error        DIISStart       ....  0.200000
   # of expansion vecs  DIISMaxEq       ....     5
   Bias factor          DIISBfac        ....   1.050
   Max. coefficient     DIISMaxC        ....  10.000
 MO-DIIS                CNVKDIIS        .... off
 Trust-Rad. Augm. Hess. CNVTRAH         .... auto
   Auto Start mean grad. ratio tolernc. ....  1.125000
   Auto Start start iteration           ....    50
   Auto Start num. interpolation iter.  ....    10
   Max. Number of Micro iterations      ....    24
   Max. Number of Macro iterations      .... Maxiter - #DIIS iter
   Number of Davidson start vectors     ....     2
   Converg. threshold    (grad. norm)   ....   1.000e-05
   Grad. Scal. Fac. for Micro threshold ....   0.100
   Minimum threshold for Micro iter.    ....   1.000e-02
   NR start threshold (gradient norm)   ....   1.000e-04
   Initial trust radius                 ....   0.400
   Minimum AH scaling param. (alpha)    ....   1.000
   Maximum AH scaling param. (alpha)    .... 1000.000
   Quad. conv. algorithm                .... NR
   White noise on init. David. guess    .... on
   Maximum white noise                  ....   0.010
   Pseudo random numbers                .... off
   Inactive MOs                         .... canonical
   Orbital update algorithm             .... Taylor
   Preconditioner                       .... Diag
   Full preconditioner red. dimension   ....   250
 SOSCF                  CNVSOSCF        .... on
   Start iteration      SOSCFMaxIt      ....   150
   Startup grad/error   SOSCFStart      ....  0.003300
   Hessian update       SOSCFHessUp     .... L-BFGS
 Level Shifting         CNVShift        .... on
   Level shift para.    LevelShift      ....    0.2500
   Turn off err/grad.   ShiftErr        ....    0.0010
 Zerner damping         CNVZerner       .... off
 Static damping         CNVDamp         .... on
   Fraction old density DampFac         ....    0.7000
   Max. Damping (<1)    DampMax         ....    0.9800
   Min. Damping (>=0)   DampMin         ....    0.0000
   Turn off err/grad.   DampErr         ....    0.1000

SCF Procedure:
 Maximum # iterations   MaxIter         ....   125
 SCF integral mode      SCFMode         .... Direct
   Integral package                     .... SHARK and LIBINT hybrid scheme
 Reset frequency        DirectResetFreq ....    20
 Integral Threshold     Thresh          ....  2.500e-11 Eh
 Primitive CutOff       TCut            ....  2.500e-12 Eh

Convergence Tolerance:
 Convergence Check Mode ConvCheckMode   .... Total+1el-Energy
 Convergence forced     ConvForced      .... 0
 Energy Change          TolE            ....  1.000e-08 Eh
 1-El. energy change                    ....  1.000e-05 Eh
 Orbital Gradient       TolG            ....  1.000e-05
 Orbital Rotation angle TolX            ....  1.000e-05
 DIIS Error             TolErr          ....  5.000e-07

------------------------------
INITIAL GUESS: MODEL POTENTIAL
------------------------------
Loading Hartree-Fock densities                     ... done
Calculating cut-offs                               ... done
Initializing the effective Hamiltonian             ... done
Setting up the integral package (SHARK)            ... done
Starting the Coulomb interaction                   ... done (   0.2 sec)
Making the grid                                    ... done (   0.2 sec)
Mapping shells                                     ... done
Starting the XC term evaluation                    ... done (   0.1 sec)
  promolecular density results
     # of electrons  =     81.997117907
     EX              =    -71.379574850
     EC              =     -2.704354668
     EX+EC           =    -74.083929518
Transforming the Hamiltonian                       ... done (   0.0 sec)
Diagonalizing the Hamiltonian                      ... done (   0.0 sec)
Back transforming the eigenvectors                 ... done (   0.0 sec)
Now organizing SCF variables                       ... done
                      ------------------
                      INITIAL GUESS DONE (   0.5 sec)
                      ------------------
             **** ENERGY FILE WAS UPDATED (/OrcaJobs/CPDMSA_opt/CPDMSA_opt.en.tmp) ****
Finished Guess after   0.9 sec
Maximum memory used throughout the entire GUESS-calculation: 24.3 MB


           ************************************************************
           *        Program running with 8 parallel MPI-processes     *
           *              working on a common directory               *
           ************************************************************

-------------------------------------------------------------------------------------------
                                      ORCA LEAN-SCF
                              memory conserving SCF solver
-------------------------------------------------------------------------------------------

----------------------------------------D-I-I-S--------------------------------------------
Iteration    Energy (Eh)           Delta-E    RMSDP     MaxDP     DIISErr   Damp  Time(sec)
-------------------------------------------------------------------------------------------
               ***  Starting incremental Fock matrix formation  ***
    1    -656.7165804429187119     0.00e+00  1.91e-03  1.70e-01  2.67e-01  0.700   1.3
    2    -656.9156704715949218    -1.99e-01  1.45e-03  1.36e-01  1.04e-01  0.700   1.2
                               ***Turning on AO-DIIS***
    3    -656.9833623699296368    -6.77e-02  5.06e-04  2.19e-02  4.38e-02  0.700   1.2
    4    -657.0248825924591074    -4.15e-02  9.23e-04  8.32e-02  1.92e-02  0.000   1.1
    5    -657.1166269388425007    -9.17e-02  3.36e-04  3.06e-02  1.27e-02  0.000   1.2
                              *** Initializing SOSCF ***
---------------------------------------S-O-S-C-F--------------------------------------
Iteration    Energy (Eh)           Delta-E    RMSDP     MaxDP     MaxGrad    Time(sec)
--------------------------------------------------------------------------------------
    6    -657.1177954460042656    -1.17e-03  1.23e-04  8.14e-03  2.99e-03     1.2
               *** Restarting incremental Fock matrix formation ***
    7    -657.1178514999780873    -5.61e-05  9.75e-05  7.22e-03  9.88e-04     1.3
    8    -657.1177483465266960     1.03e-04  3.84e-05  2.47e-03  3.49e-03     1.0
    9    -657.1178676992826695    -1.19e-04  1.22e-05  5.70e-04  6.98e-05     0.9
   10    -657.1178671650200158     5.34e-07  4.69e-06  2.59e-04  1.94e-04     0.9
   11    -657.1178679591935179    -7.94e-07  9.40e-06  9.00e-04  1.23e-04     0.9
   12    -657.1178675666926665     3.93e-07  5.91e-06  5.23e-04  1.35e-04     0.9
   13    -657.1178681272290305    -5.61e-07  6.22e-07  4.94e-05  3.33e-06     0.9
   14    -657.1178681344758843    -7.25e-09  4.22e-07  3.20e-05  3.97e-06     0.8
                 **** Energy Check signals convergence ****

               *****************************************************
               *                     SUCCESS                       *
               *           SCF CONVERGED AFTER  14 CYCLES          *
               *****************************************************

             **** ENERGY FILE WAS UPDATED (/OrcaJobs/CPDMSA_opt/CPDMSA_opt.en.tmp) ****

----------------
TOTAL SCF ENERGY
----------------

Total Energy       :       -657.11786813447588 Eh          -17881.08625 eV

Components:
Nuclear Repulsion  :        540.41975504266838 Eh           14705.56915 eV
Electronic Energy  :      -1197.53762317714427 Eh          -32586.65540 eV
One Electron Energy:      -1968.11968933774301 Eh          -53555.25944 eV
Two Electron Energy:        770.58206616059874 Eh           20968.60404 eV

Virial components:
Potential Energy   :      -1311.76705401921731 Eh          -35694.99624 eV
Kinetic Energy     :        654.64918588474143 Eh           17813.90999 eV
Virial Ratio       :          2.00377100025932

DFT components:
N(Alpha)           :       41.000005421147 electrons
N(Beta)            :       41.000005421147 electrons
N(Total)           :       82.000010842295 electrons
E(X)               :      -73.488936839468 Eh       
E(C)               :       -2.722741799139 Eh       
E(XC)              :      -76.211678638608 Eh       

---------------
SCF CONVERGENCE
---------------

  Last Energy change         ...    7.2469e-09  Tolerance :   1.0000e-08
  Last MAX-Density change    ...    3.2010e-05  Tolerance :   1.0000e-07
  Last RMS-Density change    ...    4.2210e-07  Tolerance :   5.0000e-09
  Last DIIS Error            ...    2.9870e-03  Tolerance :   5.0000e-07
  Last Orbital Gradient      ...    3.9715e-06  Tolerance :   1.0000e-05
  Last Orbital Rotation      ...    4.3606e-06  Tolerance :   1.0000e-05


----------------
ORBITAL ENERGIES
----------------

  NO   OCC          E(Eh)            E(eV) 
   0   2.0000     -65.678447     -1787.2014 
   1   2.0000     -14.094210      -383.5229 
   2   2.0000     -10.039810      -273.1971 
   3   2.0000     -10.017972      -272.6029 
   4   2.0000     -10.015276      -272.5295 
   5   2.0000      -9.989251      -271.8213 
   6   2.0000      -9.988493      -271.8007 
   7   2.0000      -9.976854      -271.4840 
   8   2.0000      -9.976806      -271.4827 
   9   2.0000      -9.976303      -271.4690 
  10   2.0000      -5.113134      -139.1354 
  11   2.0000      -3.488532       -94.9278 
  12   2.0000      -3.486534       -94.8734 
  13   2.0000      -3.486155       -94.8631 
  14   2.0000      -0.838542       -22.8179 
  15   2.0000      -0.767223       -20.8772 
  16   2.0000      -0.696953       -18.9651 
  17   2.0000      -0.680566       -18.5191 
  18   2.0000      -0.658087       -17.9075 
  19   2.0000      -0.642234       -17.4761 
  20   2.0000      -0.575455       -15.6589 
  21   2.0000      -0.511851       -13.9282 
  22   2.0000      -0.481477       -13.1017 
  23   2.0000      -0.460502       -12.5309 
  24   2.0000      -0.447917       -12.1884 
  25   2.0000      -0.408807       -11.1242 
  26   2.0000      -0.395269       -10.7558 
  27   2.0000      -0.384946       -10.4749 
  28   2.0000      -0.377789       -10.2802 
  29   2.0000      -0.370051       -10.0696 
  30   2.0000      -0.364010        -9.9052 
  31   2.0000      -0.347451        -9.4546 
  32   2.0000      -0.331018        -9.0075 
  33   2.0000      -0.329006        -8.9527 
  34   2.0000      -0.313673        -8.5355 
  35   2.0000      -0.297162        -8.0862 
  36   2.0000      -0.293108        -7.9759 
  37   2.0000      -0.291183        -7.9235 
  38   2.0000      -0.279193        -7.5972 
  39   2.0000      -0.256754        -6.9866 
  40   2.0000      -0.253454        -6.8968 
  41   0.0000      -0.024274        -0.6605 
  42   0.0000      -0.022230        -0.6049 
  43   0.0000      -0.007820        -0.2128 
  44   0.0000       0.000059         0.0016 
  45   0.0000       0.012419         0.3379 
  46   0.0000       0.028314         0.7705 
  47   0.0000       0.041827         1.1382 
  48   0.0000       0.042087         1.1452 
  49   0.0000       0.056213         1.5296 
  50   0.0000       0.065621         1.7857 
  51   0.0000       0.066096         1.7986 
*Only the first 10 virtual orbitals were printed.

                    ********************************
                    * MULLIKEN POPULATION ANALYSIS *
                    ********************************

-----------------------
MULLIKEN ATOMIC CHARGES
-----------------------
   0 C :   -0.085752
   1 C :   -0.176965
   2 H :    0.155346
   3 Si:    0.298731
   4 C :   -0.242173
   5 C :   -0.448796
   6 C :   -0.447118
   7 H :    0.130955
   8 H :    0.128325
   9 H :    0.135042
  10 H :    0.131224
  11 H :    0.135206
  12 H :    0.128958
  13 H :    0.105702
  14 C :   -0.255578
  15 H :    0.104716
  16 H :    0.115055
  17 H :    0.114243
  18 C :   -0.048418
  19 H :    0.125282
  20 C :   -0.261266
  21 H :    0.125801
  22 N :    0.031480
Sum of atomic charges:   -0.0000000

--------------------------------
MULLIKEN REDUCED ORBITAL CHARGES
--------------------------------
  0 C s       :     3.171737  s :     3.171737
      pz      :     0.987459  p :     2.901182
      px      :     0.944963
      py      :     0.968760
      dz2     :    -0.000878  d :     0.006222
      dxz     :     0.003808
      dyz     :     0.001080
      dx2y2   :     0.002153
      dxy     :     0.000059
      f0      :     0.000829  f :     0.006611
      f+1     :     0.000663
      f-1     :     0.000297
      f+2     :     0.000408
      f-2     :     0.000977
      f+3     :     0.002067
      f-3     :     0.001370

  1 C s       :     3.417766  s :     3.417766
      pz      :     0.928375  p :     2.705948
      px      :     0.872126
      py      :     0.905447
      dz2     :     0.002758  d :     0.045982
      dxz     :     0.013977
      dyz     :     0.003727
      dx2y2   :     0.014373
      dxy     :     0.011148
      f0      :     0.001198  f :     0.007268
      f+1     :     0.000301
      f-1     :     0.000226
      f+2     :     0.000616
      f-2     :     0.001406
      f+3     :     0.002986
      f-3     :     0.000535

  2 H s       :     0.824263  s :     0.824263
      pz      :     0.004105  p :     0.020391
      px      :     0.010321
      py      :     0.005965

  3 Sis       :     5.225506  s :     5.225506
      pz      :     2.678423  p :     7.962543
      px      :     2.625652
      py      :     2.658468
      dz2     :     0.101563  d :     0.450382
      dxz     :     0.086528
      dyz     :     0.075455
      dx2y2   :     0.090000
      dxy     :     0.096835
      f0      :     0.009408  f :     0.062839
      f+1     :     0.007533
      f-1     :     0.011378
      f+2     :     0.008447
      f-2     :     0.008206
      f+3     :     0.011380
      f-3     :     0.006488

  4 C s       :     3.127494  s :     3.127494
      pz      :     1.049822  p :     3.041978
      px      :     0.960616
      py      :     1.031541
      dz2     :     0.011165  d :     0.068360
      dxz     :     0.020410
      dyz     :     0.005350
      dx2y2   :     0.019706
      dxy     :     0.011729
      f0      :     0.000715  f :     0.004341
      f+1     :     0.000763
      f-1     :     0.000164
      f+2     :     0.000620
      f-2     :     0.000348
      f+3     :     0.000848
      f-3     :     0.000883

  5 C s       :     3.210602  s :     3.210602
      pz      :     1.101509  p :     3.203256
      px      :     1.051432
      py      :     1.050314
      dz2     :     0.006337  d :     0.032381
      dxz     :     0.006409
      dyz     :     0.006917
      dx2y2   :     0.005897
      dxy     :     0.006820
      f0      :     0.000381  f :     0.002557
      f+1     :     0.000531
      f-1     :     0.000234
      f+2     :     0.000197
      f-2     :     0.000340
      f+3     :     0.000064
      f-3     :     0.000811

  6 C s       :     3.209754  s :     3.209754
      pz      :     1.060805  p :     3.202544
      px      :     1.046325
      py      :     1.095415
      dz2     :     0.008805  d :     0.032264
      dxz     :     0.005066
      dyz     :     0.005037
      dx2y2   :     0.003804
      dxy     :     0.009552
      f0      :     0.000544  f :     0.002556
      f+1     :     0.000595
      f-1     :     0.000179
      f+2     :     0.000120
      f-2     :     0.000296
      f+3     :     0.000152
      f-3     :     0.000671

  7 H s       :     0.848124  s :     0.848124
      pz      :     0.009837  p :     0.020921
      px      :     0.005168
      py      :     0.005917

  8 H s       :     0.850669  s :     0.850669
      pz      :     0.004724  p :     0.021006
      px      :     0.008741
      py      :     0.007541

  9 H s       :     0.843989  s :     0.843989
      pz      :     0.006394  p :     0.020970
      px      :     0.007160
      py      :     0.007416

 10 H s       :     0.847857  s :     0.847857
      pz      :     0.006549  p :     0.020919
      px      :     0.004888
      py      :     0.009481

 11 H s       :     0.843821  s :     0.843821
      pz      :     0.008435  p :     0.020973
      px      :     0.006975
      py      :     0.005564

 12 H s       :     0.850030  s :     0.850030
      pz      :     0.005935  p :     0.021011
      px      :     0.009111
      py      :     0.005965

 13 H s       :     0.873044  s :     0.873044
      pz      :     0.005666  p :     0.021254
      px      :     0.004907
      py      :     0.010681

 14 C s       :     3.224949  s :     3.224949
      pz      :     1.000044  p :     2.920844
      px      :     0.925671
      py      :     0.995129
      dz2     :     0.020854  d :     0.103063
      dxz     :     0.027491
      dyz     :     0.008260
      dx2y2   :     0.029481
      dxy     :     0.016976
      f0      :     0.000975  f :     0.006721
      f+1     :     0.001110
      f-1     :     0.000501
      f+2     :     0.001129
      f-2     :     0.000679
      f+3     :     0.001199
      f-3     :     0.001127

 15 H s       :     0.874029  s :     0.874029
      pz      :     0.009945  p :     0.021255
      px      :     0.006296
      py      :     0.005015

 16 H s       :     0.865141  s :     0.865141
      pz      :     0.009907  p :     0.019804
      px      :     0.005543
      py      :     0.004353

 17 H s       :     0.865986  s :     0.865986
      pz      :     0.004684  p :     0.019770
      px      :     0.004353
      py      :     0.010734

 18 C s       :     3.076753  s :     3.076753
      pz      :     1.011218  p :     2.877737
      px      :     0.866585
      py      :     0.999935
      dz2     :     0.022813  d :     0.088355
      dxz     :     0.019001
      dyz     :     0.006806
      dx2y2   :     0.026096
      dxy     :     0.013640
      f0      :     0.000782  f :     0.005572
      f+1     :     0.001100
      f-1     :     0.000501
      f+2     :     0.000997
      f-2     :     0.000451
      f+3     :     0.000705
      f-3     :     0.001035

 19 H s       :     0.854603  s :     0.854603
      pz      :     0.004892  p :     0.020115
      px      :     0.004029
      py      :     0.011195

 20 C s       :     3.244696  s :     3.244696
      pz      :     0.917769  p :     2.914922
      px      :     1.062326
      py      :     0.934827
      dz2     :     0.003738  d :     0.086222
      dxz     :     0.032121
      dyz     :     0.004467
      dx2y2   :     0.022719
      dxy     :     0.023177
      f0      :     0.002172  f :     0.015426
      f+1     :     0.001302
      f-1     :     0.000480
      f+2     :     0.002221
      f-2     :     0.001509
      f+3     :     0.004719
      f-3     :     0.003024

 21 H s       :     0.854099  s :     0.854099
      pz      :     0.010406  p :     0.020100
      px      :     0.005286
      py      :     0.004408

 22 N s       :     3.603681  s :     3.603681
      pz      :     1.056771  p :     3.327888
      px      :     1.194990
      py      :     1.076127
      dz2     :     0.001552  d :     0.034860
      dxz     :     0.012753
      dyz     :     0.001692
      dx2y2   :     0.008516
      dxy     :     0.010346
      f0      :     0.000360  f :     0.002091
      f+1     :     0.000065
      f-1     :     0.000059
      f+2     :     0.000361
      f-2     :     0.000251
      f+3     :     0.000703
      f-3     :     0.000292



                     *******************************
                     * LOEWDIN POPULATION ANALYSIS *
                     *******************************

----------------------
LOEWDIN ATOMIC CHARGES
----------------------
   0 C :   -0.103861
   1 C :   -0.171414
   2 H :    0.122997
   3 Si:    0.288248
   4 C :   -0.337078
   5 C :   -0.408719
   6 C :   -0.408744
   7 H :    0.129347
   8 H :    0.127390
   9 H :    0.130686
  10 H :    0.129469
  11 H :    0.130668
  12 H :    0.127348
  13 H :    0.142626
  14 C :   -0.260159
  15 H :    0.142353
  16 H :    0.141593
  17 H :    0.141323
  18 C :   -0.236115
  19 H :    0.160356
  20 C :   -0.199685
  21 H :    0.160226
  22 N :    0.051146

-------------------------------
LOEWDIN REDUCED ORBITAL CHARGES
-------------------------------
  0 C s       :     2.915467  s :     2.915467
      pz      :     0.931947  p :     3.015964
      px      :     1.101445
      py      :     0.982572
      dz2     :     0.018099  d :     0.135655
      dxz     :     0.024424
      dyz     :     0.007234
      dx2y2   :     0.038153
      dxy     :     0.047745
      f0      :     0.003380  f :     0.036776
      f+1     :     0.005546
      f-1     :     0.002046
      f+2     :     0.001668
      f-2     :     0.003981
      f+3     :     0.008450
      f-3     :     0.011705

  1 C s       :     2.925496  s :     2.925496
      pz      :     0.889334  p :     3.022375
      px      :     1.162977
      py      :     0.970064
      dz2     :     0.019635  d :     0.186740
      dxz     :     0.043024
      dyz     :     0.011608
      dx2y2   :     0.056143
      dxy     :     0.056330
      f0      :     0.003954  f :     0.036804
      f+1     :     0.004708
      f-1     :     0.001838
      f+2     :     0.001992
      f-2     :     0.004661
      f+3     :     0.009882
      f-3     :     0.009768

  2 H s       :     0.809264  s :     0.809264
      pz      :     0.013195  p :     0.067739
      px      :     0.034812
      py      :     0.019732

  3 Sis       :     4.567106  s :     4.567106
      pz      :     2.674994  p :     7.969172
      px      :     2.627309
      py      :     2.666869
      dz2     :     0.212297  d :     0.951550
      dxz     :     0.180682
      dyz     :     0.171882
      dx2y2   :     0.188868
      dxy     :     0.197821
      f0      :     0.032960  f :     0.223923
      f+1     :     0.028607
      f-1     :     0.038212
      f+2     :     0.030686
      f-2     :     0.029744
      f+3     :     0.036848
      f-3     :     0.026867

  4 C s       :     2.828597  s :     2.828597
      pz      :     1.080822  p :     3.194931
      px      :     1.047324
      py      :     1.066785
      dz2     :     0.048549  d :     0.288476
      dxz     :     0.080275
      dyz     :     0.024587
      dx2y2   :     0.081904
      dxy     :     0.053160
      f0      :     0.003933  f :     0.025074
      f+1     :     0.004115
      f-1     :     0.001293
      f+2     :     0.003171
      f-2     :     0.002281
      f+3     :     0.004975
      f-3     :     0.005307

  5 C s       :     2.883945  s :     2.883945
      pz      :     1.201950  p :     3.358410
      px      :     1.088265
      py      :     1.068194
      dz2     :     0.036073  d :     0.153822
      dxz     :     0.032134
      dyz     :     0.028350
      dx2y2   :     0.026812
      dxy     :     0.030453
      f0      :     0.001373  f :     0.012543
      f+1     :     0.001812
      f-1     :     0.001668
      f+2     :     0.001776
      f-2     :     0.002178
      f+3     :     0.000559
      f-3     :     0.003177

  6 C s       :     2.883934  s :     2.883934
      pz      :     1.085133  p :     3.358421
      px      :     1.067359
      py      :     1.205929
      dz2     :     0.040371  d :     0.153844
      dxz     :     0.023535
      dyz     :     0.023494
      dx2y2   :     0.025095
      dxy     :     0.041349
      f0      :     0.002122  f :     0.012546
      f+1     :     0.002338
      f-1     :     0.001161
      f+2     :     0.001140
      f-2     :     0.002310
      f+3     :     0.000688
      f-3     :     0.002787

  7 H s       :     0.807301  s :     0.807301
      pz      :     0.032098  p :     0.063352
      px      :     0.015047
      py      :     0.016207

  8 H s       :     0.809138  s :     0.809138
      pz      :     0.013459  p :     0.063472
      px      :     0.029150
      py      :     0.020863

  9 H s       :     0.805866  s :     0.805866
      pz      :     0.020322  p :     0.063448
      px      :     0.022455
      py      :     0.020671

 10 H s       :     0.807167  s :     0.807167
      pz      :     0.017810  p :     0.063364
      px      :     0.013810
      py      :     0.031744

 11 H s       :     0.805879  s :     0.805879
      pz      :     0.024158  p :     0.063452
      px      :     0.022454
      py      :     0.016841

 12 H s       :     0.809162  s :     0.809162
      pz      :     0.016288  p :     0.063489
      px      :     0.028917
      py      :     0.018284

 13 H s       :     0.795771  s :     0.795771
      pz      :     0.016534  p :     0.061603
      px      :     0.013502
      py      :     0.031567

 14 C s       :     2.780351  s :     2.780351
      pz      :     1.012531  p :     3.030062
      px      :     0.997181
      py      :     1.020351
      dz2     :     0.082234  d :     0.409936
      dxz     :     0.102190
      dyz     :     0.041637
      dx2y2   :     0.112557
      dxy     :     0.071319
      f0      :     0.004881  f :     0.039810
      f+1     :     0.006264
      f-1     :     0.003496
      f+2     :     0.006261
      f-2     :     0.005367
      f+3     :     0.006927
      f-3     :     0.006614

 15 H s       :     0.796042  s :     0.796042
      pz      :     0.030310  p :     0.061606
      px      :     0.017331
      py      :     0.013965

 16 H s       :     0.800594  s :     0.800594
      pz      :     0.029612  p :     0.057814
      px      :     0.015587
      py      :     0.012615

 17 H s       :     0.800885  s :     0.800885
      pz      :     0.014543  p :     0.057792
      px      :     0.012061
      py      :     0.031188

 18 C s       :     2.774986  s :     2.774986
      pz      :     1.021235  p :     3.030006
      px      :     0.988857
      py      :     1.019914
      dz2     :     0.089464  d :     0.392225
      dxz     :     0.084289
      dyz     :     0.037449
      dx2y2   :     0.114661
      dxy     :     0.066362
      f0      :     0.004485  f :     0.038898
      f+1     :     0.006733
      f-1     :     0.003607
      f+2     :     0.006262
      f-2     :     0.004575
      f+3     :     0.005768
      f-3     :     0.007467

 19 H s       :     0.781715  s :     0.781715
      pz      :     0.014878  p :     0.057929
      px      :     0.010888
      py      :     0.032163

 20 C s       :     2.843208  s :     2.843208
      pz      :     0.854529  p :     2.875155
      px      :     1.128306
      py      :     0.892320
      dz2     :     0.040549  d :     0.423382
      dxz     :     0.117203
      dyz     :     0.015229
      dx2y2   :     0.127311
      dxy     :     0.123091
      f0      :     0.006163  f :     0.057940
      f+1     :     0.008422
      f-1     :     0.001973
      f+2     :     0.006169
      f-2     :     0.004337
      f+3     :     0.015434
      f-3     :     0.015440

 21 H s       :     0.781837  s :     0.781837
      pz      :     0.030961  p :     0.057937
      px      :     0.014465
      py      :     0.012512

 22 N s       :     3.312562  s :     3.312562
      pz      :     1.019042  p :     3.515715
      px      :     1.423819
      py      :     1.072855
      dz2     :     0.011664  d :     0.104867
      dxz     :     0.025892
      dyz     :     0.003440
      dx2y2   :     0.032406
      dxy     :     0.031465
      f0      :     0.001669  f :     0.015710
      f+1     :     0.002288
      f-1     :     0.000535
      f+2     :     0.001673
      f-2     :     0.001165
      f+3     :     0.004183
      f-3     :     0.004197



                      *****************************
                      * MAYER POPULATION ANALYSIS *
                      *****************************

  NA   - Mulliken gross atomic population
  ZA   - Total nuclear charge
  QA   - Mulliken gross atomic charge
  VA   - Mayer's total valence
  BVA  - Mayer's bonded valence
  FA   - Mayer's free valence

  ATOM       NA         ZA         QA         VA         BVA        FA
  0 C      6.0858     6.0000    -0.0858     3.6612     3.6612    -0.0000
  1 C      6.1770     6.0000    -0.1770     3.5999     3.5999     0.0000
  2 H      0.8447     1.0000     0.1553     0.9801     0.9801    -0.0000
  3 Si    13.7013    14.0000     0.2987     4.3614     4.3614     0.0000
  4 C      6.2422     6.0000    -0.2422     3.8109     3.8109    -0.0000
  5 C      6.4488     6.0000    -0.4488     3.8516     3.8516     0.0000
  6 C      6.4471     6.0000    -0.4471     3.8522     3.8522     0.0000
  7 H      0.8690     1.0000     0.1310     0.9705     0.9705     0.0000
  8 H      0.8717     1.0000     0.1283     0.9701     0.9701     0.0000
  9 H      0.8650     1.0000     0.1350     0.9715     0.9715    -0.0000
 10 H      0.8688     1.0000     0.1312     0.9703     0.9703     0.0000
 11 H      0.8648     1.0000     0.1352     0.9714     0.9714    -0.0000
 12 H      0.8710     1.0000     0.1290     0.9698     0.9698     0.0000
 13 H      0.8943     1.0000     0.1057     0.9719     0.9719    -0.0000
 14 C      6.2556     6.0000    -0.2556     4.0542     4.0542     0.0000
 15 H      0.8953     1.0000     0.1047     0.9716     0.9716     0.0000
 16 H      0.8849     1.0000     0.1151     0.9669     0.9669    -0.0000
 17 H      0.8858     1.0000     0.1142     0.9667     0.9667     0.0000
 18 C      6.0484     6.0000    -0.0484     3.9236     3.9236     0.0000
 19 H      0.8747     1.0000     0.1253     0.9716     0.9716     0.0000
 20 C      6.2613     6.0000    -0.2613     4.1812     4.1812    -0.0000
 21 H      0.8742     1.0000     0.1258     0.9711     0.9711     0.0000
 22 N      6.9685     7.0000     0.0315     3.1647     3.1647    -0.0000

  Mayer bond orders larger than 0.100000
B(  0-C ,  1-C ) :   2.5689 B(  0-C ,  2-H ) :   1.0216 B(  1-C ,  3-Si) :   1.0925 
B(  3-Si,  4-C ) :   0.9610 B(  3-Si,  5-C ) :   1.0228 B(  3-Si,  6-C ) :   1.0238 
B(  4-C , 13-H ) :   0.9292 B(  4-C , 14-C ) :   1.0130 B(  4-C , 15-H ) :   0.9296 
B(  5-C , 10-H ) :   0.9460 B(  5-C , 11-H ) :   0.9453 B(  5-C , 12-H ) :   0.9448 
B(  6-C ,  7-H ) :   0.9463 B(  6-C ,  8-H ) :   0.9448 B(  6-C ,  9-H ) :   0.9455 
B( 14-C , 16-H ) :   0.9485 B( 14-C , 17-H ) :   0.9484 B( 14-C , 18-C ) :   1.0297 
B( 18-C , 19-H ) :   0.9162 B( 18-C , 20-C ) :   1.0504 B( 18-C , 21-H ) :   0.9161 
B( 20-C , 22-N ) :   3.0873 

-------
TIMINGS
-------

Total SCF time: 0 days 0 hours 0 min 15 sec 

Total time                  ....      15.498 sec
Sum of individual times     ....      15.477 sec  ( 99.9%)

SCF preparation             ....       0.405 sec  (  2.6%)
Fock matrix formation       ....      13.778 sec  ( 88.9%)
  Startup                   ....       0.029 sec  (  0.2% of F)
  Split-RI-J                ....       3.514 sec  ( 25.5% of F)
  XC integration            ....      10.102 sec  ( 73.3% of F)
    XC Preparation          ....       0.000 sec  (  0.0% of XC)
    Basis function eval.    ....       1.563 sec  ( 15.5% of XC)
    Density eval.           ....       3.593 sec  ( 35.6% of XC)
    XC-Functional eval.     ....       0.310 sec  (  3.1% of XC)
    XC-Potential eval.      ....       4.079 sec  ( 40.4% of XC)
Diagonalization             ....       0.000 sec  (  0.0%)
Density matrix formation    ....       0.087 sec  (  0.6%)
Total Energy calculation    ....       0.052 sec  (  0.3%)
Population analysis         ....       0.057 sec  (  0.4%)
Orbital Transformation      ....       0.127 sec  (  0.8%)
Orbital Orthonormalization  ....       0.000 sec  (  0.0%)
DIIS solution               ....       0.583 sec  (  3.8%)
SOSCF solution              ....       0.387 sec  (  2.5%)
Finished LeanSCF after  15.5 sec

Maximum memory used throughout the entire LEANSCF-calculation: 34.7 MB


           ************************************************************
           *        Program running with 8 parallel MPI-processes     *
           *              working on a common directory               *
           ************************************************************

------------------------------------------------------------------------------
                         ORCA PROPERTY INTEGRAL CALCULATIONS
------------------------------------------------------------------------------

GBWName                                   ... /OrcaJobs/CPDMSA_opt/CPDMSA_opt.gbw
Number of atoms                           ...     23
Number of basis functions                 ...    394
Max core memory                           ...   1024 MB

Dipole integrals                          ... YES
Quadrupole integrals                      ...  NO
Linear momentum integrals                 ...  NO
Angular momentum integrals                ...  NO
Higher moments length integrals           ...  NO
Higher moments velocity integrals         ...  NO
Kinetic energy integrals                  ...  NO
GIAO right hand sides                     ...  NO
GIAO dipole derivative integrals          ...  NO
SOC integrals                             ...  NO
EPR diamagnetic integrals (GIAO)          ...  NO
EPR gauge integrals                       ...  NO
Field gradient integrals                  ...  NO (   0 nuclei)
Spin-dipole/Fermi contact integrals       ...  NO (   0 nuclei)
Contact density integrals                 ...  NO (   0 nuclei)
Nucleus-orbit integrals                   ...  NO (   0 nuclei)
Geometric perturbations                   ...  NO (  23 nuclei)

Choice of electric origin   ... Center of mass
Position of electric origin ... ( -2.0851,  5.5082, -0.9129) 
Choice of magnetic origin   ... GIAO
Position of magnetic origin ... (  0.0000,  0.0000,  0.0000) 

Calculating integrals                     ... Electric Dipole (Length)     done (  0.0 sec)

Property integrals calculated in   0.0 sec

Maximum memory used throughout the entire PROPINT-calculation: 23.6 MB

-------------------------   --------------------
FINAL SINGLE POINT ENERGY      -657.117868134476
-------------------------   --------------------



           ************************************************************
           *        Program running with 8 parallel MPI-processes     *
           *              working on a common directory               *
           ************************************************************
------------------------------------------------------------------------------
                         ORCA SCF GRADIENT CALCULATION
------------------------------------------------------------------------------

Nuc. rep. gradient        (SHARK) ... done (  0.0 sec)
HCore & Overlap gradient  (SHARK) ... done (  0.2 sec)
Split-RIJ-J gradient      (SHARK) ... done (  1.1 sec)
XC gradient                       ... done (  3.3 sec)

------------------
CARTESIAN GRADIENT
------------------

   1   C   :    0.023705915    0.013126678    0.000607737
   2   C   :   -0.039253510   -0.020947231   -0.000469663
   3   H   :    0.000864641    0.000228677   -0.000101687
   4   Si  :    0.004797512    0.008389294    0.004379306
   5   C   :    0.007928855   -0.001873467   -0.004572574
   6   C   :    0.002577562    0.001907256   -0.001323344
   7   C   :    0.003512870    0.000119111    0.000774715
   8   H   :    0.000836109   -0.001224591    0.000950336
   9   H   :   -0.001225341   -0.000572760   -0.000254983
  10   H   :    0.000510029   -0.001326732    0.000140752
  11   H   :   -0.000153443    0.000710485   -0.001670532
  12   H   :   -0.000046543   -0.000094576   -0.001407062
  13   H   :   -0.001095912   -0.000834502    0.000023960
  14   H   :    0.000567254    0.002373422    0.001114392
  15   C   :    0.005972575   -0.006210776   -0.007040783
  16   H   :    0.000903424    0.001951613    0.001725908
  17   H   :   -0.001043100    0.000545631    0.001732093
  18   H   :   -0.001433116    0.001369864    0.000572991
  19   C   :   -0.006013662   -0.001889739    0.000638372
  20   H   :   -0.001824668    0.000217699    0.000272788
  21   C   :    0.000609566    0.005023857    0.003945949
  22   H   :   -0.001700917   -0.000153465    0.000940900
  23   N   :    0.001003899   -0.000835747   -0.000979568

Difference to translation invariance:
           :   -0.0000000000   -0.0000000000    0.0000000000

Difference to rotation invariance:
           :    0.0001881549   -0.0001407547    0.0000219686

Norm of the Cartesian gradient     ...    0.0565057738
RMS gradient                       ...    0.0068024958
MAX gradient                       ...    0.0392535103

-------
TIMINGS
-------

Total SCF gradient time     ....        4.531 sec

Densities                   ....       0.002 sec  (  0.0%)
One electron gradient       ....       0.214 sec  (  4.7%)
RI-J Coulomb gradient       ....       1.062 sec  ( 23.4%)
XC gradient                 ....       3.253 sec  ( 71.8%)

Maximum memory used throughout the entire SCFGRAD-calculation: 43.6 MB
------------------------------------------------------------------------------
                         ORCA GEOMETRY RELAXATION STEP
------------------------------------------------------------------------------

Reading the OPT-File                    .... done
Getting information on internals        .... done
Copying old internal coords+grads       .... done
Making the new internal coordinates     .... (2022 redundants) done
Validating the new internal coordinates .... (2022 redundants) done
Calculating the B-matrix                .... done
Calculating the G,G- and P matrices     .... done
Transforming gradient to internals      .... done
Projecting the internal gradient        .... done
Number of atoms                         ....  23
Number of internal coordinates          .... 101
Current Energy                          ....  -657.117868134 Eh
Current gradient norm                   ....     0.056505774 Eh/bohr
Maximum allowed component of the step   ....  0.300
Current trust radius                    ....  0.300
Evaluating the initial hessian          ....  (Almloef) done
Projecting the Hessian                  .... done
Forming the augmented Hessian           .... done
Diagonalizing the augmented Hessian     .... done
Last element of RFO vector              ....  0.995004529
Lowest eigenvalues of augmented Hessian:
 -0.002357621  0.003227402  0.003823206  0.003837214  0.011044098
Length of the computed step             ....  0.100330990
The final length of the internal step   ....  0.100330990
Converting the step to Cartesian space:
 Initial RMS(Int)=    0.0099833066
Transforming coordinates:
 Iter   0:  RMS(Cart)=    0.0242684534 RMS(Int)=    0.8829389118
 Iter   5:  RMS(Cart)=    0.0000022354 RMS(Int)=    0.0000016498
done
Storing new coordinates                 .... done

                                .--------------------.
          ----------------------|Geometry convergence|-------------------------
          Item                value                   Tolerance       Converged
          ---------------------------------------------------------------------
          RMS gradient        0.0036938747            0.0001000000      NO
          MAX gradient        0.0279715056            0.0003000000      NO
          RMS step            0.0099833066            0.0020000000      NO
          MAX step            0.0373911993            0.0040000000      NO
          ........................................................
          Max(Bonds)      0.0198      Max(Angles)    0.89
          Max(Dihed)        1.46      Max(Improp)    0.00
          ---------------------------------------------------------------------

The optimization has not yet converged - more geometry cycles are needed


    ---------------------------------------------------------------------------
                         Redundant Internal Coordinates
                            (Angstroem and degrees)

        Definition                    Value    dE/dq     Step     New-Value
    ----------------------------------------------------------------------------
     1. B(C   1,C   0)                1.2005 -0.027972  0.0118    1.2123   
     2. B(H   2,C   0)                1.0661 -0.000866  0.0012    1.0673   
     3. B(Si  3,C   1)                1.8857  0.016525 -0.0198    1.8659   
     4. B(C   4,Si  3)                1.9126  0.003822 -0.0050    1.9076   
     5. B(C   5,Si  3)                1.8728 -0.003584  0.0041    1.8769   
     6. B(C   6,Si  3)                1.8723 -0.003729  0.0043    1.8766   
     7. B(H   7,C   6)                1.0941 -0.001190  0.0018    1.0958   
     8. B(H   8,C   6)                1.0941 -0.001360  0.0020    1.0961   
     9. B(H   9,C   6)                1.0943 -0.000912  0.0014    1.0956   
    10. B(H  10,C   5)                1.0941 -0.001211  0.0018    1.0958   
    11. B(H  11,C   5)                1.0942 -0.000913  0.0014    1.0956   
    12. B(H  12,C   5)                1.0941 -0.001362  0.0020    1.0961   
    13. B(H  13,C   4)                1.0965 -0.001900  0.0028    1.0994   
    14. B(C  14,C   4)                1.5313 -0.004832  0.0068    1.5381   
    15. B(H  15,C   4)                1.0965 -0.001937  0.0029    1.0994   
    16. B(H  16,C  14)                1.0980  0.001126 -0.0017    1.0963   
    17. B(H  17,C  14)                1.0980  0.001143 -0.0017    1.0963   
    18. B(C  18,C  14)                1.5306 -0.008688  0.0123    1.5429   
    19. B(H  19,C  18)                1.0962 -0.000139  0.0002    1.0964   
    20. B(C  20,C  18)                1.4686  0.002790 -0.0031    1.4654   
    21. B(H  21,C  18)                1.0962 -0.000164  0.0002    1.0964   
    22. B(N  22,C  20)                1.1603  0.000706 -0.0003    1.1600   
    23. L(C   1,C   0,H   2, 2)       180.11  0.000114   -0.02    180.09   
    24. L(C   1,C   0,H   2, 1)       179.77 -0.000215    0.03    179.80   
    25. L(C   0,C   1,Si  3,C   4, 1) 179.32 -0.000579    0.07    179.39   
    26. L(C   0,C   1,Si  3,C   4, 2) 180.25  0.000044   -0.00    180.24   
    27. A(C   1,Si  3,C   5)          109.91  0.000989   -0.55    109.36   
    28. A(C   4,Si  3,C   5)          109.58 -0.001234    0.61    110.19   
    29. A(C   4,Si  3,C   6)          109.57 -0.001119    0.59    110.16   
    30. A(C   1,Si  3,C   6)          110.08  0.001168   -0.58    109.49   
[...]
     25       0.025498  -0.002646  -0.000216
     26      -0.009486  -0.017675   0.000110
     27      -0.209216  -0.404981   0.000239
     28       0.152931   0.300204  -0.000172
     29       0.178982   0.349980  -0.000216
     30       0.064382  -0.032572  -0.000047
     31      -0.581445   0.305474   0.000358
     32       0.212865  -0.112289  -0.000130
     33       0.380419  -0.238850   0.000234
     34      -0.265537   0.168725  -0.000168
     35      -0.371167   0.234551  -0.000214
     36      -0.036477  -0.019079   0.000070
     37       0.001876  -0.022118   0.000105
     38       0.001174  -0.004329  -0.000314
     39       0.000752  -0.000024  -0.000006
     40      -0.012696   0.001922   0.000323
     41       0.003468  -0.000018  -0.000116
     42      -0.000589  -0.000166   0.000022
     43       0.001193   0.000259   0.000041
     44      -0.001585  -0.000359   0.000023
     45       0.004037   0.002784   0.000159
     46       0.000430   0.000940   0.000000
     47       0.009571   0.006992   0.000320
     48       0.007126   0.001800  -0.000055
     49       0.000384  -0.000317  -0.000002
     50       0.013610   0.003785  -0.000101
     51      -0.000044  -0.000319  -0.000002
     52      -0.014455  -0.002759  -0.000112
     53       0.005065   0.000608   0.000045
     54      -0.000272  -0.000064  -0.000014
     55       0.000557   0.000125  -0.000016
     56      -0.000731  -0.000171  -0.000007
     57       0.000329   0.000100   0.000007
     58      -0.006927  -0.001586   0.000031
     59       0.002109   0.000527  -0.000025
     60       0.000004  -0.000021   0.000006
     61       0.000004  -0.000008   0.000010
     62      -0.000004   0.000001   0.000006
     63       0.002945   0.000685   0.000024
     64       0.000223   0.000103  -0.000007
     65       0.006701   0.001546   0.000029
     66      -0.000003   0.000014  -0.000010
     67      -0.000002   0.000006  -0.000005
     68       0.000001  -0.000000   0.000001


-----------
IR SPECTRUM
-----------

 Mode   freq       eps      Int      T**2         TX        TY        TZ
       cm**-1   L/(mol*cm) km/mol    a.u.
----------------------------------------------------------------------------
  6:     27.52   0.000848    4.29  0.009615  ( 0.027797 -0.057089  0.074720)
  7:     55.00   0.000381    1.92  0.002161  (-0.008070  0.034909  0.029612)
  8:     67.89   0.000096    0.49  0.000442  (-0.005925  0.012411 -0.015902)
  9:     96.80   0.000611    3.09  0.001968  (-0.012700  0.026074 -0.033570)
 10:    107.69   0.000658    3.33  0.001907  ( 0.013268 -0.029951 -0.028873)
 11:    119.82   0.000134    0.68  0.000350  (-0.005420  0.011290 -0.013893)
 12:    148.54   0.000000    0.00  0.000001  (-0.000250  0.000216  0.000883)
 13:    155.48   0.000042    0.21  0.000085  (-0.005995  0.004415  0.005458)
 14:    169.25   0.000459    2.32  0.000846  (-0.017307  0.015023  0.017911)
 15:    198.74   0.000076    0.38  0.000119  (-0.008750 -0.006280 -0.001728)
 16:    213.78   0.000041    0.21  0.000060  (-0.002125  0.004666 -0.005763)
 17:    263.42   0.000172    0.87  0.000204  ( 0.007258 -0.008228 -0.009164)
 18:    290.94   0.000467    2.36  0.000501  (-0.017028 -0.013906 -0.004167)
 19:    344.37   0.003794   19.17  0.003438  (-0.016439  0.033757 -0.045034)
 20:    357.56   0.004867   24.60  0.004248  ( 0.029984 -0.040362 -0.041468)
 21:    376.72   0.000084    0.42  0.000069  ( 0.002266 -0.004881  0.006360)
 22:    530.03   0.000976    4.93  0.000575  (-0.019186  0.007110  0.012487)
 23:    561.70   0.004333   21.90  0.002407  (-0.045599 -0.017777  0.003472)
 24:    646.63   0.006699   33.86  0.003233  (-0.050194 -0.026661 -0.001673)
 25:    650.25   0.000129    0.65  0.000062  ( 0.001399 -0.004829  0.006046)
 26:    685.98   0.001576    7.97  0.000717  (-0.001610  0.004687 -0.026316)
 27:    687.39   0.005938   30.01  0.002696  ( 0.003760 -0.010600  0.050689)
 28:    688.85   0.006735   34.04  0.003051  ( 0.026102 -0.048267 -0.006336)
 29:    723.71   0.007655   38.69  0.003301  (-0.003481  0.045325  0.035134)
 30:    733.56   0.001996   10.08  0.000849  (-0.008499  0.016522 -0.022444)
 31:    767.39   0.006456   32.63  0.002625  (-0.014241  0.029515 -0.039389)
 32:    808.14   0.009138   46.18  0.003529  (-0.017474  0.034284 -0.045255)
 33:    830.03   0.029492  149.04  0.011088  (-0.099120 -0.002416  0.035459)
 34:    859.34   0.016216   81.95  0.005889  (-0.011290 -0.062586 -0.042944)
 35:    926.43   0.000468    2.37  0.000158  ( 0.003774 -0.008852 -0.008068)
 36:    973.12   0.003676   18.58  0.001179  (-0.009715  0.019918 -0.026227)
 37:    988.25   0.001315    6.65  0.000415  ( 0.019525  0.003346 -0.004794)
 38:   1010.70   0.003424   17.30  0.001057  ( 0.030676  0.000929 -0.010733)
 39:   1139.23   0.000399    2.02  0.000109  ( 0.003003 -0.005994  0.008024)
 40:   1182.94   0.002663   13.46  0.000702  (-0.025296 -0.002327  0.007560)
 41:   1267.77   0.000167    0.84  0.000041  (-0.001720  0.003727 -0.004928)
 42:   1281.78   0.004969   25.11  0.001210  (-0.009801  0.020273 -0.026508)
 43:   1287.58   0.001890    9.55  0.000458  ( 0.006208 -0.015166 -0.013764)
 44:   1291.02   0.001743    8.81  0.000421  ( 0.016573  0.011770  0.002860)
 45:   1322.57   0.000006    0.03  0.000001  ( 0.000392 -0.000708  0.000835)
 46:   1352.09   0.001342    6.78  0.000310  ( 0.010981 -0.008661 -0.010688)
 47:   1445.56   0.000336    1.70  0.000073  ( 0.004081 -0.005192 -0.005376)
 48:   1451.18   0.000000    0.00  0.000000  (-0.000006 -0.000005 -0.000075)
 49:   1455.28   0.000138    0.69  0.000029  (-0.001440  0.002885 -0.004369)
 50:   1459.90   0.000992    5.01  0.000212  ( 0.003021 -0.010825 -0.009262)
 51:   1460.88   0.000623    3.15  0.000133  (-0.002806  0.008458  0.007325)
 52:   1467.22   0.000865    4.37  0.000184  ( 0.008194  0.009863  0.004414)
 53:   1492.60   0.000716    3.62  0.000150  (-0.002508 -0.009967 -0.006636)
 54:   2092.69   0.004277   21.61  0.000638  ( 0.022419  0.011617  0.000395)
 55:   2281.76   0.002712   13.70  0.000371  (-0.018457 -0.003703  0.004061)
 56:   2974.67   0.001824    9.22  0.000191  (-0.006620 -0.010616 -0.005903)
 57:   2994.63   0.001145    5.79  0.000119  ( 0.003181 -0.006161  0.008442)
 58:   2995.46   0.001007    5.09  0.000105  (-0.006050 -0.007687 -0.003033)
 59:   3000.18   0.000019    0.09  0.000002  (-0.001251 -0.000600 -0.000030)
 60:   3007.14   0.001264    6.39  0.000131  ( 0.002955 -0.007248  0.008363)
 61:   3011.62   0.005345   27.01  0.000554  ( 0.008426  0.018549  0.011780)
 62:   3030.36   0.000434    2.20  0.000045  (-0.001774  0.003961 -0.005089)
 63:   3054.34   0.005588   28.24  0.000571  (-0.006727  0.014058 -0.018111)
 64:   3062.16   0.000127    0.64  0.000013  ( 0.000160 -0.002404  0.002678)
 65:   3063.59   0.004922   24.88  0.000501  ( 0.020904  0.007755 -0.002072)
 66:   3069.29   0.001457    7.37  0.000148  (-0.005492  0.009389 -0.005466)
 67:   3069.96   0.003149   15.92  0.000320  ( 0.006471 -0.009509 -0.013705)
 68:   3415.71   0.008292   41.90  0.000758  (-0.024610 -0.012322 -0.000168)

* The epsilon (eps) is given for a Dirac delta lineshape.
** The dipole moment derivative (T) already includes vibrational overlap.

The first frequency considered to be a vibration is 6
The total number of vibrations considered is 63


--------------------------
THERMOCHEMISTRY AT 298.15K
--------------------------

Temperature         ...   298.15 K
Pressure            ...     1.00 atm
Total Mass          ...   151.28 AMU
Quasi RRHO          ...     True
Cut-Off Frequency   ...     1.00 cm^-1

Throughout the following assumptions are being made:
  (1) The electronic state is orbitally nondegenerate
  (2) There are no thermally accessible electronically excited states
  (3) Hindered rotations indicated by low frequency modes are not
      treated as such but are treated as vibrations and this may
      cause some error
  (4) All equations used are the standard statistical mechanics
      equations for an ideal gas
  (5) All vibrations are strictly harmonic

freq.      27.52  E(vib)   ...       0.55 
freq.      55.00  E(vib)   ...       0.52 
freq.      67.89  E(vib)   ...       0.50 
freq.      96.80  E(vib)   ...       0.46 
freq.     107.69  E(vib)   ...       0.45 
freq.     119.82  E(vib)   ...       0.44 
freq.     148.54  E(vib)   ...       0.41 
freq.     155.48  E(vib)   ...       0.40 
freq.     169.25  E(vib)   ...       0.38 
freq.     198.74  E(vib)   ...       0.35 
freq.     213.78  E(vib)   ...       0.34 
freq.     263.42  E(vib)   ...       0.29 
freq.     290.94  E(vib)   ...       0.27 
freq.     344.37  E(vib)   ...       0.23 
freq.     357.56  E(vib)   ...       0.22 
freq.     376.72  E(vib)   ...       0.21 
freq.     530.03  E(vib)   ...       0.13 
freq.     561.70  E(vib)   ...       0.11 
freq.     646.63  E(vib)   ...       0.09 
freq.     650.25  E(vib)   ...       0.08 
freq.     685.98  E(vib)   ...       0.07 
freq.     687.39  E(vib)   ...       0.07 
freq.     688.85  E(vib)   ...       0.07 
freq.     723.71  E(vib)   ...       0.06 
freq.     733.56  E(vib)   ...       0.06 
freq.     767.39  E(vib)   ...       0.06 
freq.     808.14  E(vib)   ...       0.05 
freq.     830.03  E(vib)   ...       0.04 
freq.     859.34  E(vib)   ...       0.04 
freq.     926.43  E(vib)   ...       0.03 
freq.     973.12  E(vib)   ...       0.03 
freq.     988.25  E(vib)   ...       0.02 
freq.    1010.70  E(vib)   ...       0.02 
freq.    1139.23  E(vib)   ...       0.01 
freq.    1182.94  E(vib)   ...       0.01 
freq.    1267.77  E(vib)   ...       0.01 
freq.    1281.78  E(vib)   ...       0.01 
freq.    1287.58  E(vib)   ...       0.01 
freq.    1291.02  E(vib)   ...       0.01 
freq.    1322.57  E(vib)   ...       0.01 
freq.    1352.09  E(vib)   ...       0.01 
freq.    1445.56  E(vib)   ...       0.00 
freq.    1451.18  E(vib)   ...       0.00 
freq.    1455.28  E(vib)   ...       0.00 
freq.    1459.90  E(vib)   ...       0.00 
freq.    1460.88  E(vib)   ...       0.00 
freq.    1467.22  E(vib)   ...       0.00 
freq.    1492.60  E(vib)   ...       0.00 
freq.    2092.69  E(vib)   ...       0.00 
freq.    2281.76  E(vib)   ...       0.00 
freq.    2974.67  E(vib)   ...       0.00 
freq.    2994.63  E(vib)   ...       0.00 
freq.    2995.46  E(vib)   ...       0.00 
freq.    3000.18  E(vib)   ...       0.00 
freq.    3007.14  E(vib)   ...       0.00 
freq.    3011.62  E(vib)   ...       0.00 
freq.    3030.36  E(vib)   ...       0.00 
freq.    3054.34  E(vib)   ...       0.00 
freq.    3062.16  E(vib)   ...       0.00 
freq.    3063.59  E(vib)   ...       0.00 
freq.    3069.29  E(vib)   ...       0.00 
freq.    3069.96  E(vib)   ...       0.00 
freq.    3415.71  E(vib)   ...       0.00 

------------
INNER ENERGY
------------

The inner energy is: U= E(el) + E(ZPE) + E(vib) + E(rot) + E(trans)
    E(el)   - is the total energy from the electronic structure calculation
              = E(kin-el) + E(nuc-el) + E(el-el) + E(nuc-nuc)
    E(ZPE)  - the the zero temperature vibrational energy from the frequency calculation
    E(vib)  - the the finite temperature correction to E(ZPE) due to population
              of excited vibrational states
    E(rot)  - is the rotational thermal energy
    E(trans)- is the translational thermal energy

Summary of contributions to the inner energy U:
Electronic energy                ...   -657.12000085 Eh
Zero point energy                ...      0.18349772 Eh     115.15 kcal/mol
Thermal vibrational correction   ...      0.01143031 Eh       7.17 kcal/mol
Thermal rotational correction    ...      0.00141627 Eh       0.89 kcal/mol
Thermal translational correction ...      0.00141627 Eh       0.89 kcal/mol
-----------------------------------------------------------------------
Total thermal energy                   -656.92224027 Eh


Summary of corrections to the electronic energy:
(perhaps to be used in another calculation)
Total thermal correction                  0.01426286 Eh       8.95 kcal/mol
Non-thermal (ZPE) correction              0.18349772 Eh     115.15 kcal/mol
-----------------------------------------------------------------------
Total correction                          0.19776058 Eh     124.10 kcal/mol


--------
ENTHALPY
--------

The enthalpy is H = U + kB*T
                kB is Boltzmann's constant
Total thermal energy              ...   -656.92224027 Eh 
Thermal Enthalpy correction       ...      0.00094421 Eh       0.59 kcal/mol
-----------------------------------------------------------------------
Total Enthalpy                    ...   -656.92129606 Eh


Note: Only C1 symmetry has been detected, increase convergence thresholds 
      if your molecule has a higher symmetry. Symmetry factor of 1.0 is   
      used for the rotational entropy correction. 
 

Note: Rotational entropy computed according to Herzberg 
Infrared and Raman Spectra, Chapter V,1, Van Nostrand Reinhold, 1945 
Point Group:  C1, Symmetry Number:   1  
Rotational constants in cm-1:     0.074763     0.014389     0.013730 

Vibrational entropy computed according to the QRRHO of S. Grimme
Chem.Eur.J. 2012 18 9955 using a reference frequency of 100.0 cm-1


-------
ENTROPY
-------

The entropy contributions are T*S = T*(S(el)+S(vib)+S(rot)+S(trans))
     S(el)   - electronic entropy
     S(vib)  - vibrational entropy
     S(rot)  - rotational entropy
     S(trans)- translational entropy
The entropies will be listed as multiplied by the temperature to get
units of energy

Electronic entropy                ...      0.00000000 Eh      0.00 kcal/mol
Vibrational entropy               ...      0.02071272 Eh     13.00 kcal/mol
Rotational entropy                ...      0.01476182 Eh      9.26 kcal/mol
Translational entropy             ...      0.01945757 Eh     12.21 kcal/mol
-----------------------------------------------------------------------
Final entropy term                ...      0.05493211 Eh     34.47 kcal/mol

In case the symmetry of your molecule has not been determined correctly
or in case you have a reason to use a different symmetry number we print 
out the resulting rotational entropy values for sn=1,12:

 non-linear molecules -----------------------------------
|  sn= 1 | S(rot)=       0.01476182 Eh      9.26 kcal/mol|
|  sn= 2 | S(rot)=       0.01410737 Eh      8.85 kcal/mol|
|  sn= 3 | S(rot)=       0.01372453 Eh      8.61 kcal/mol|
|  sn= 4 | S(rot)=       0.01345291 Eh      8.44 kcal/mol|
|  sn= 5 | S(rot)=       0.01324222 Eh      8.31 kcal/mol|
|  sn= 6 | S(rot)=       0.01307008 Eh      8.20 kcal/mol|
|  sn= 7 | S(rot)=       0.01292453 Eh      8.11 kcal/mol|
|  sn= 8 | S(rot)=       0.01279845 Eh      8.03 kcal/mol|
|  sn= 9 | S(rot)=       0.01268725 Eh      7.96 kcal/mol|
|  sn=10 | S(rot)=       0.01258777 Eh      7.90 kcal/mol|
|  sn=11 | S(rot)=       0.01249778 Eh      7.84 kcal/mol|
|  sn=12 | S(rot)=       0.01241562 Eh      7.79 kcal/mol|
 linear molecules ---------------------------------------
|  Dinfh | S(rot)=       0.00937463 Eh      5.88 kcal/mol|
|  Cinfv | S(rot)=       0.01002909 Eh      6.29 kcal/mol|
 --------------------------------------------------------


-------------------
GIBBS FREE ENERGY
-------------------

The Gibbs free energy is G = H - T*S

Total enthalpy                    ...   -656.92129606 Eh 
Total entropy correction          ...     -0.05493211 Eh    -34.47 kcal/mol
-----------------------------------------------------------------------
Final Gibbs free energy         ...   -656.97622818 Eh

For completeness - the Gibbs free energy minus the electronic energy
G-E(el)                           ...      0.14377267 Eh     90.22 kcal/mol


Maximum memory used throughout the entire PROP-calculation: 65.0 MB

--------------------------------
SUGGESTED CITATIONS FOR THIS RUN
--------------------------------

Below you find a list of papers that are relevant to this ORCA run
We neither can nor want to force you to cite these papers, but we appreciate if you do
You receive ORCA, which is the product of decades of hard work by many enthusiastic individuals, for free
The only thing we kindly ask in return is that you cite our papers,
We deeply appreciate it, if you show your appreciation for ORCA by not just citing the generic ORCA reference.

Please note that relegating all ORCA citations to the supporting information does *not* help us.
SI sections are not indexed - citations you put there will not count into any citation statistics
But we need these citations in order to attract the funding resources that allow us to do what we are doing

Therefore, if you are a happy ORCA user, please consider citing a few of the papers listed below in the main body of your paper

In addition to the list printed below, the program has created the file /OrcaJobs/CPDMSA_opt/CPDMSA_opt.bibtex that contains the list in bibtex format
You can import this file easily into all common literature databanks and citation aid programs


List of essential papers. We consider these as the minimum necessary citations

  1. Neese,F.
     Software update: the ORCA program system, version 5.0
     WIRES Comput. Molec. Sci., 2022 12(1)e1606
     doi.org/10.1002/wcms.1606

List of papers to cite with high priority. The work reported in these papers was absolutely
necessary for this run to complete.
Our perspective: the developers of density functionals and basis sets usually get cited in chemistry papers
Good! But without the algorithms to do something with them, the functionals or basis sets would not do anything.
Hence, in our opinion, the algorithm design and method developments papers are equally worthy of getting cited

  1. Neese,F.
     An improvement of the resolution of the identity approximation for the formation of the Coulomb matrix
     J. Comp. Chem., 2003 24(14)1740-1747
     doi.org/10.1002/jcc.10318
  2. Bykov,D.; Petrenko,T.; Izsak,R.; Kossmann,S.; Becker,U.; Valeev,E.; Neese,F.
     Efficient implementation of the analytic second derivatives of Hartree-Fock and hybrid DFT energies: a detailed analysis of different approximations
     Molec. Phys., 2015 113 1961-1977
     doi.org/10.1080/00268976.2015.1025114
  3. Neese,F.
     The SHARK Integral Generation and Digestion System
     J. Comp. Chem., 2022  1-16
     doi.org/10.1002/jcc.26942

List of suggested additional citations. These are papers that are important in the 'surrounding' of 
of this run, or papers that preceded the highly important papers. If you like your results we are grateful for a citation.

  1. Neese,F.
     The ORCA program system
     WIRES Comput. Molec. Sci., 2012 2(1)73-78
     doi.org/10.1002/wcms.81
  2. Neese,F.
     Software update: the ORCA program system, version 4.0
     WIRES Comput. Molec. Sci., 2018 8(1)1-6
     doi.org/10.1002/wcms.1327
  3. Neese,F.; Wennmohs,F.; Becker,U.; Riplinger,C.
     The ORCA quantum chemistry program package
     J. Chem. Phys., 2020 152 Art. No. L224108
     doi.org/10.1063/5.0004608

List of optional additional citations

  1. Neese,F.
     Approximate second-order SCF convergence for spin unrestricted wavefunctions
     Chem. Phys. Lett., 2000 325(1-3)93-98
     doi.org/10.1016/s0009-2614(00)00662-x

Timings for individual modules:

Sum of individual times          ...      460.169 sec (=   7.669 min)
Startup calculation              ...       14.121 sec (=   0.235 min)   3.1 %
SCF iterations                   ...       83.067 sec (=   1.384 min)  18.1 %
Property integrals               ...      169.882 sec (=   2.831 min)  36.9 %
SCF Response                     ...      102.008 sec (=   1.700 min)  22.2 %
Property calculations            ...       55.030 sec (=   0.917 min)  12.0 %
SCF Gradient evaluation          ...       35.973 sec (=   0.600 min)   7.8 %
Geometry relaxation              ...        0.088 sec (=   0.001 min)   0.0 %
                             ****ORCA TERMINATED NORMALLY****
TOTAL RUN TIME: 0 days 0 hours 7 minutes 43 seconds 639 msec
