
                                 *****************
                                 * O   R   C   A *
                                 *****************

                                            #,                                       
                                            ###                                      
                                            ####                                     
                                            #####                                    
                                            ######                                   
                                           ########,                                 
                                     ,,################,,,,,                         
                               ,,#################################,,                 
                          ,,##########################################,,             
                       ,#########################################, ''#####,          
                    ,#############################################,,   '####,        
                  ,##################################################,,,,####,       
                ,###########''''           ''''###############################       
              ,#####''   ,,,,##########,,,,          '''####'''          '####       
            ,##' ,,,,###########################,,,                        '##       
           ' ,,###''''                  '''############,,,                           
         ,,##''                                '''############,,,,        ,,,,,,###''
      ,#''                                            '''#######################'''  
     '                                                          ''''####''''         
             ,#######,   #######,   ,#######,      ##                                
            ,#'     '#,  ##    ##  ,#'     '#,    #''#        ,####,   ,####,        
            ##       ##  ##   ,#'  ##            #'  '#       #'       #'  '#        
            ##       ##  #######   ##           ,######,      #####,   #    #        
            '#,     ,#'  ##    ##  '#,     ,#' ,#      #,     #,   #   #,  ,#        
             '#######'   ##     ##  '#######'  #'      '#     '####' # '####'        



                #########################################################
                #                        -***-                          #
                #          Department of theory and spectroscopy        #
                #                                                       #
                #                      Frank Neese                      #
                #                                                       #
                #     Directorship, Architecture, Infrastructure        #
                #                    SHARK, DRIVERS                     #
                #        Core code/Algorithms in most modules           #
                #                                                       #
                #        Max Planck Institute fuer Kohlenforschung      #
                #                Kaiser Wilhelm Platz 1                 #
                #                 D-45470 Muelheim/Ruhr                 #
                #                      Germany                          #
                #                                                       #
                #                  All rights reserved                  #
                #                        -***-                          #
                #########################################################


                         Program Version 6.0.0  -   RELEASE  -


 With contributions from (in alphabetic order):
   Daniel Aravena         : Magnetic Suceptibility
   Michael Atanasov       : Ab Initio Ligand Field Theory (pilot matlab implementation)
   Alexander A. Auer      : GIAO ZORA, VPT2 properties, NMR spectrum
   Ute Becker             : All parallelization in ORCA, NUMFREQ, NUMCALC
   Giovanni Bistoni       : ED, misc. LED, open-shell LED, HFLD
   Martin Brehm           : Molecular dynamics
   Dmytro Bykov           : pre 5.0 version of the SCF Hessian
   Marcos Casanova-Páez   : Triplet and SCS-CIS(D). UHF-(DLPNO)-IP/EA/STEOM-CCSD. UHF-CVS-IP/STEOM-CCSD
   Vijay G. Chilkuri      : MRCI spin determinant printing, contributions to CSF-ICE
   Pauline Colinet        : FMM embedding
   Dipayan Datta          : RHF DLPNO-CCSD density
   Achintya Kumar Dutta   : EOM-CC, STEOM-CC
   Nicolas Foglia         : Exact transition moments, OPA infrastructure, MCD improvements
   Dmitry Ganyushin       : Spin-Orbit,Spin-Spin,Magnetic field MRCI
   Miquel Garcia          : C-PCM and meta-GGA Hessian, CCSD/C-PCM, Gaussian charge scheme
   Tiago L. C. Gouveia    : GS-ROHF, GS-ROCIS
   Yang Guo               : DLPNO-NEVPT2, F12-NEVPT2, CIM, IAO-localization
   Andreas Hansen         : Spin unrestricted coupled pair/coupled cluster methods
   Ingolf Harden          : AUTO-CI MPn and infrastructure 
   Benjamin Helmich-Paris : MC-RPA, TRAH-(SCF,CASSCF), AVAS, COSX integrals, SCF dyn. polar.
   Lee Huntington         : MR-EOM, pCC
   Robert Izsak           : Overlap fitted RIJCOSX, COSX-SCS-MP3, EOM
   Riya Kayal             : Wick's Theorem for AUTO-CI, AUTO-CI UHF-CCSDT
   Emily Kempfer          : AUTO-CI, RHF CISDT and CCSDT
   Christian Kollmar      : KDIIS, OOCD, Brueckner-CCSD(T), CCSD density, CASPT2, CASPT2-K, improved NEVPT2
   Axel Koslowski         : Symmetry handling
   Simone Kossmann        : Meta GGA functionals, TD-DFT gradient, OOMP2, (MP2 Hessian; deprecated post 5.0)
   Lucas Lang             : DCDCAS
   Marvin Lechner         : AUTO-CI (C++ implementation), FIC-MRCC
   Spencer Leger          : CASSCF response
   Dagmar Lenk            : GEPOL surface, SMD, ORCA-2-JSON
   Dimitrios Liakos       : Extrapolation schemes; Compound Job, initial MDCI parallelization
   Dimitrios Manganas     : Further ROCIS development; embedding schemes. LFT, Crystal Embedding
   Dimitrios Pantazis     : SARC Basis sets
   Anastasios Papadopoulos: AUTO-CI, single reference methods and gradients
   Taras Petrenko         : pre 6.0 DFT Hessian and TD-DFT gradient, (ASA, deprecated), ECA, 1-Electron XAS/XES, NRVS
   Peter Pinski           : DLPNO-MP2, DLPNO-MP2 Gradient
   Christoph Reimann      : Effective Core Potentials
   Marius Retegan         : Local ZFS, SOC
   Christoph Riplinger    : Optimizer, TS searches, QM/MM, DLPNO-CCSD(T), (RO)-DLPNO pert. Triples
   Michael Roemelt        : Original ROCIS implementation
   Masaaki Saitow         : Open-shell DLPNO-CCSD energy and density
   Barbara Sandhoefer     : DKH picture change effects
   Kantharuban Sivalingam : CASSCF convergence/infrastructure, NEVPT2 and variants, FIC-MRCI
   Bernardo de Souza      : ESD, SOC TD-DFT
   Georgi Stoychev        : AutoAux, RI-MP2 NMR, DLPNO-MP2 response, X2C
   Van Anh Tran           : RI-MP2 g-tensors
   Willem Van den Heuvel  : Paramagnetic NMR
   Zikuan Wang            : NOTCH, Electric field optimization 
   Frank Wennmohs         : Technical directorship and infrastructure
   Hang Xu                : AUTO-CI-Response properties 


 We gratefully acknowledge several colleagues who have allowed us to
 interface, adapt or use parts of their codes:
   Stefan Grimme, W. Hujo, H. Kruse, P. Pracht,  : VdW corrections, initial TS optimization,
                  C. Bannwarth, S. Ehlert,         DFT functionals, gCP, sTDA/sTD-DF
                  L. Wittmann, M. Mueller
   Ed Valeev, F. Pavosevic, A. Kumar             : LibInt (2-el integral package), F12 methods
   Garnet Chan, S. Sharma, J. Yang, R. Olivares  : DMRG
   Ulf Ekstrom                                   : XCFun DFT Library
   Mihaly Kallay                                 : mrcc  (arbitrary order and MRCC methods)
   Frank Weinhold                                : gennbo (NPA and NBO analysis)
   Simon Mueller                                 : openCOSMO-RS
   Christopher J. Cramer and Donald G. Truhlar   : smd solvation model
   Lars Goerigk                                  : TD-DFT with DH, B97 family of functionals
   V. Asgeirsson, H. Jonsson                     : NEB implementation
   FAccTs GmbH                                   : IRC, NEB, NEB-TS, DLPNO-Multilevel, CI-OPT
                                                   MM, QMMM, 2- and 3-layer-ONIOM, Crystal-QMMM,
                                                   LR-CPCM, SF, NACMEs, symmetry and pop. for TD-DFT,
                                                   nearIR, NL-DFT gradient (VV10), updates on ESD,
                                                   ML-optimized integration grids, MBIS, APM,
                                                   GOAT, DOCKER, SOLVATOR, interface openCOSMO-RS
   S Lehtola, MJT Oliveira, MAL Marques          : LibXC Library
   Liviu Ungur et al                             : ANISO software


 Your calculation uses the libint2 library for the computation of 2-el integrals
 For citations please refer to: http://libint.valeyev.net

 Your ORCA version has been built with support for libXC version: 6.2.2
 For citations please refer to: https://libxc.gitlab.io

 This ORCA versions uses:
   CBLAS   interface :  Fast vector & matrix operations
   LAPACKE interface :  Fast linear algebra routines
   SCALAPACK package :  Parallel linear algebra routines
   Shared memory     :  Shared parallel matrices
   BLAS/LAPACK       :  OpenBLAS 0.3.27  USE64BITINT DYNAMIC_ARCH NO_AFFINITY Haswell SINGLE_THREADED
        Core in use  :  Haswell
   Copyright (c) 2011-2014, The OpenBLAS Project




***************************************
The coordinates will be read from file: CPDMSA_optimized.xyz
***************************************


Your calculation utilizes the semiempirical GFN2-xTB method
Please cite in your paper:
C. Bannwarth, Ehlert S., S. Grimme,  J. Chem. Theory Comput., 15, (2019), 1652.
   

================================================================================

================================================================================
                                        WARNINGS
                       Please study these warnings very carefully!
================================================================================


WARNING: Geometry Optimization
  ===> : Switching off AutoStart
         For restart on a previous wavefunction, please use MOREAD

WARNING: Found dipole moment calculation with XTB calculation
  ===> : Switching off dipole moment calculation


================================================================================
                                       INPUT FILE
================================================================================
NAME = /OrcaJobs/Jobs/CPDMSA_goat/CPDMSA_goat.inp
|  1> !GOAT XTB PAL8
|  2> 
|  3> * XYZFILE 0 1 CPDMSA_optimized.xyz
|  4> 
|  5> 
|  6>                          ****END OF INPUT****
================================================================================

                       *****************************
                       * Geometry Optimization Run *
                       *****************************


                       *********************************
                       *              GOAT             *
                       * Global Optimization Algorithm *
                       *********************************

Geometry optimization settings:
Update method            Update   .... BFGS
Choice of coordinates    CoordSys .... (2022) Redundant Internals
Initial Hessian          InHess   .... Almloef's Model
Max. no of cycles        MaxIter  .... 69

Convergence Tolerances:
Energy Change            TolE     ....  5.0000e-06 Eh
Max. Gradient            TolMAXG  ....  3.0000e-04 Eh/bohr
RMS Gradient             TolRMSG  ....  1.0000e-04 Eh/bohr
Max. Displacement        TolMAXD  ....  4.0000e-03 bohr
RMS Displacement         TolRMSD  ....  2.0000e-03 bohr
Strict Convergence                .... True

------------------------------------------------------------------------------
                        ORCA OPTIMIZATION COORDINATE SETUP
------------------------------------------------------------------------------

The optimization will be done in redundant internal coordinates (2022)
Making redundant internal coordinates   ...  (2022 redundants) done
Evaluating the initial hessian          ...  (Almloef) done
Evaluating the coordinates              ...  done
Calculating the B-matrix                .... done
Calculating the G-matrix                .... done
Diagonalizing the G-matrix              .... done
Small eigenvalue found = 9.228e-03
Small eigenvalue found = 2.093e-02
The first mode is                       ....   38
The number of degrees of freedom        ....   63

    -----------------------------------------------------------------
                    Redundant Internal Coordinates


    -----------------------------------------------------------------
         Definition                    Initial Value    Approx d2E/dq
    -----------------------------------------------------------------
      1. B(C   1,C   0)                  1.2148         1.189357   
      2. B(H   2,C   0)                  1.0676         0.391039   
      3. B(Si  3,C   1)                  1.8414         0.517300   
      4. B(C   4,Si  3)                  1.8982         0.419827   
      5. B(C   5,Si  3)                  1.8824         0.444901   
      6. B(C   6,Si  3)                  1.8825         0.444801   
      7. B(H   7,C   6)                  1.0958         0.352525   
      8. B(H   8,C   6)                  1.0967         0.351325   
      9. B(H   9,C   6)                  1.0958         0.352488   
     10. B(H  10,C   5)                  1.0958         0.352502   
     11. B(H  11,C   5)                  1.0958         0.352465   
     12. B(H  12,C   5)                  1.0967         0.351305   
     13. B(H  13,C   4)                  1.0996         0.347620   
     14. B(C  14,C   4)                  1.5380         0.362761   
     15. B(H  15,C   4)                  1.0996         0.347585   
     16. B(H  16,C  14)                  1.0958         0.352458   
     17. B(H  17,C  14)                  1.0958         0.352488   
     18. B(C  18,C  14)                  1.5481         0.349482   
     19. B(H  19,C  18)                  1.0969         0.351134   
     20. B(C  20,C  18)                  1.4630         0.477884   
     21. B(H  21,C  18)                  1.0969         0.351100   
     22. B(N  22,C  20)                  1.1601         1.302130   
     23. L(C   1,C   0,H   2, 2)       179.9973         0.400596   
     24. L(C   1,C   0,H   2, 1)       180.0032         0.400596   
     25. L(C   0,C   1,Si  3,C   4, 1) 179.7771         0.511916   
     26. L(C   0,C   1,Si  3,C   4, 2) 180.1956         0.511916   
     27. A(C   1,Si  3,C   5)          108.6290         0.462006   
     28. A(C   4,Si  3,C   5)          110.9848         0.444789   
     29. A(C   4,Si  3,C   6)          110.9736         0.444771   
     30. A(C   1,Si  3,C   6)          108.6511         0.461987   
     31. A(C   1,Si  3,C   4)          106.6486         0.457140   
     32. A(C   5,Si  3,C   6)          110.8088         0.449473   
     33. A(H  13,C   4,C  14)          109.7731         0.320901   
     34. A(Si  3,C   4,H  15)          107.8697         0.353102   
     35. A(C  14,C   4,H  15)          109.7979         0.320896   
     36. A(Si  3,C   4,C  14)          115.2001         0.397327   
     37. A(H  13,C   4,H  15)          105.8982         0.287638   
     38. A(Si  3,C   4,H  13)          107.8735         0.353108   
     39. A(H  11,C   5,H  12)          107.6688         0.288742   
     40. A(H  10,C   5,H  12)          108.0419         0.288746   
     41. A(Si  3,C   5,H  12)          111.2665         0.357238   
     42. A(H  10,C   5,H  11)          107.7014         0.288896   
     43. A(Si  3,C   5,H  11)          110.6763         0.357438   
     44. A(Si  3,C   5,H  10)          111.3271         0.357444   
     45. A(H   7,C   6,H   9)          107.7152         0.288902   
     46. A(Si  3,C   6,H   9)          110.6916         0.357428   
     47. A(H   7,C   6,H   8)          108.0441         0.288752   
     48. A(Si  3,C   6,H   8)          111.2462         0.357228   
     49. A(Si  3,C   6,H   7)          111.3109         0.357435   
     50. A(H   8,C   6,H   9)          107.6754         0.288747   
     51. A(H  16,C  14,H  17)          106.7485         0.288893   
     52. A(C   4,C  14,H  17)          110.6660         0.321632   
     53. A(C   4,C  14,H  16)          110.6308         0.321627   
     54. A(H  17,C  14,C  18)          108.4581         0.319677   
     55. A(H  16,C  14,C  18)          108.4317         0.319672   
     56. A(C   4,C  14,C  18)          111.7377         0.357452   
     57. A(C  20,C  18,H  21)          108.4510         0.336385   
     58. A(H  19,C  18,H  21)          107.0176         0.288544   
     59. A(C  14,C  18,H  21)          110.0898         0.319471   
     60. A(H  19,C  18,C  20)          108.4415         0.336391   
     61. A(C  14,C  18,C  20)          112.5857         0.374733   
     62. A(C  14,C  18,H  19)          110.0779         0.319476   
     63. L(C  18,C  20,N  22,C  14, 2) 179.8939         0.470647   
     64. L(C  18,C  20,N  22,C  14, 1) 178.4536         0.470647   
     65. D(C  14,C   4,Si  3,C   1)   -179.9471         0.003418   
     66. D(H  13,C   4,Si  3,C   1)    -56.9506         0.003418   
     67. D(C  14,C   4,Si  3,C   6)     61.8813         0.003418   
     68. D(H  13,C   4,Si  3,C   6)   -175.1222         0.003418   
     69. D(H  13,C   4,Si  3,C   5)     61.2005         0.003418   
     70. D(C  14,C   4,Si  3,C   5)    -61.7960         0.003418   
     71. D(H  15,C   4,Si  3,C   5)    175.1782         0.003418   
     72. D(H  15,C   4,Si  3,C   1)     57.0270         0.003418   
     73. D(H  11,C   5,Si  3,C   6)     59.4187         0.003659   
     74. D(H  11,C   5,Si  3,C   1)    -59.8659         0.003659   
     75. D(H  11,C   5,Si  3,C   4)   -176.8097         0.003659   
     76. D(H  12,C   5,Si  3,C   1)   -179.5356         0.003659   
     77. D(H  10,C   5,Si  3,C   6)    179.1693         0.003659   
     78. D(H  10,C   5,Si  3,C   4)    -57.0591         0.003659   
     79. D(H  10,C   5,Si  3,C   1)     59.8848         0.003659   
     80. D(H  12,C   5,Si  3,C   4)     63.5205         0.003659   
     81. D(H   9,C   6,Si  3,C   4)    176.7560         0.003658   
     82. D(H   8,C   6,Si  3,C   5)     60.2088         0.003658   
     83. D(H   8,C   6,Si  3,C   4)    -63.5691         0.003658   
     84. D(H   8,C   6,Si  3,C   1)    179.4801         0.003658   
     85. D(H   7,C   6,Si  3,C   5)   -179.2337         0.003658   
     86. D(H   9,C   6,Si  3,C   1)     59.8052         0.003658   
     87. D(H   7,C   6,Si  3,C   4)     56.9883         0.003658   
     88. D(H   7,C   6,Si  3,C   1)    -59.9624         0.003658   
     89. D(H  17,C  14,C   4,H  15)     63.0583         0.010547   
     90. D(H  17,C  14,C   4,H  13)    179.0849         0.010547   
     91. D(H  17,C  14,C   4,Si  3)    -58.9355         0.010547   
     92. D(H  16,C  14,C   4,H  15)   -178.8359         0.010547   
     93. D(H  16,C  14,C   4,H  13)    -62.8093         0.010547   
     94. D(H  16,C  14,C   4,Si  3)     59.1703         0.010547   
     95. D(H  19,C  18,C  14,C   4)    -58.7658         0.009843   
     96. D(H  21,C  18,C  14,C   4)     58.9751         0.009843   
     97. D(C  20,C  18,C  14,H  17)     57.8642         0.009843   
     98. D(C  20,C  18,C  14,H  16)    -57.6965         0.009843   
     99. D(C  20,C  18,C  14,C   4)   -179.8851         0.009843   
    100. D(H  19,C  18,C  14,H  17)    178.9835         0.009843   
    101. D(H  19,C  18,C  14,H  16)     63.4228         0.009843   
    -----------------------------------------------------------------

Number of atoms                         .... 23
Number of degrees of freedom            .... 101


         *************************************************************
         *                GEOMETRY OPTIMIZATION CYCLE   1            *
         *************************************************************
---------------------------------
CARTESIAN COORDINATES (ANGSTROEM)
---------------------------------
  C    -5.061515    1.844814    0.174854
  C    -3.989331    2.415101    0.204047
  H    -6.003802    1.343685    0.149243
  Si   -2.360321    3.272567    0.246603
  C    -1.208422    2.309745   -0.915019
  C    -1.712241    3.244976    2.013746
  C    -2.595453    5.041823   -0.351929
  H    -2.985509    5.067403   -1.375624
  H    -1.649303    5.596167   -0.334957
  H    -3.305713    5.576222    0.288977
  H    -1.586089    2.218500    2.375992
  H    -2.409167    3.753480    2.689445
  H    -0.743600    3.753611    2.090193
  H    -1.176884    1.266087   -0.570191
  C     0.221773    2.864303   -1.026544
  H    -1.676649    2.284332   -1.909655
  H     0.708874    2.876311   -0.044988
  H     0.208215    3.899733   -1.385032
  C     1.089496    2.022197   -1.993329
  H     1.136081    0.982004   -1.648455
  C     2.455580    2.532276   -2.111269
  H     0.636317    2.009257   -2.992143
  N     3.531981    2.958854   -2.183665

----------------------------
CARTESIAN COORDINATES (A.U.)
----------------------------
  NO LB    ZA    FRAG    MASS        X           Y           Z
   0 C   6.0000    1    12.011   -9.564877    3.486193    0.330426
   1 C   6.0000    1    12.011   -7.538743    4.563879    0.385593
   2 H   1.0000    1     1.008  -11.345542    2.539197    0.282028
   3 Si 14.0000    1    28.086   -4.460360    6.184255    0.466012
   4 C   6.0000    1    12.011   -2.283587    4.364785   -1.729135
   5 C   6.0000    1    12.011   -3.235667    6.132116    3.805428
   6 C   6.0000    1    12.011   -4.904695    9.527665   -0.665049
   7 H   1.0000    1     1.008   -5.641794    9.576004   -2.599553
   8 H   1.0000    1     1.008   -3.116731   10.575223   -0.632977
   9 H   1.0000    1     1.008   -6.246892   10.537532    0.546087
  10 H   1.0000    1     1.008   -2.997274    4.192357    4.489974
  11 H   1.0000    1     1.008   -4.552666    7.093049    5.082315
  12 H   1.0000    1     1.008   -1.405200    7.093297    3.949892
  13 H   1.0000    1     1.008   -2.223988    2.392558   -1.077505
  14 C   6.0000    1    12.011    0.419090    5.412748   -1.939887
  15 H   1.0000    1     1.008   -3.168407    4.316762   -3.608725
  16 H   1.0000    1     1.008    1.339578    5.435440   -0.085015
  17 H   1.0000    1     1.008    0.393469    7.369427   -2.617331
  18 C   6.0000    1    12.011    2.058849    3.821399   -3.766846
  19 H   1.0000    1     1.008    2.146882    1.855719   -3.115128
  20 C   6.0000    1    12.011    4.640374    4.785308   -3.989720
  21 H   1.0000    1     1.008    1.202465    3.796945   -5.654331
  22 N   7.0000    1    14.007    6.674477    5.591424   -4.126529

      -----------------------------------------------------------      
     |                   =====================                   |     
     |                           x T B                           |     
     |                   =====================                   |     
     |                         S. Grimme                         |     
     |          Mulliken Center for Theoretical Chemistry        |     
     |                    University of Bonn                     |     
      -----------------------------------------------------------      

   * xtb version 6.7.1 (edcfbbe) compiled by 'albert@albert-system' on 2024-07-22

   xtb is free software: you can redistribute it and/or modify it under
   the terms of the GNU Lesser General Public License as published by
   the Free Software Foundation, either version 3 of the License, or
   (at your option) any later version.
   
   xtb is distributed in the hope that it will be useful,
   but WITHOUT ANY WARRANTY; without even the implied warranty of
   MERCHANTABILITY or FITNESS FOR A PARTICULAR PURPOSE.  See the
   GNU Lesser General Public License for more details.
   
   Cite this work as:
   * C. Bannwarth, E. Caldeweyher, S. Ehlert, A. Hansen, P. Pracht,
     J. Seibert, S. Spicher, S. Grimme, WIREs Comput. Mol. Sci., 2020, 11,
     e01493. DOI: 10.1002/wcms.1493
   
   for GFN2-xTB:
   * C. Bannwarth, S. Ehlert and S. Grimme., J. Chem. Theory Comput., 2019,
     15, 1652-1671. DOI: 10.1021/acs.jctc.8b01176
   for GFN1-xTB:
   * S. Grimme, C. Bannwarth, P. Shushkov, J. Chem. Theory Comput., 2017,
     13, 1989-2009. DOI: 10.1021/acs.jctc.7b00118
   for GFN0-xTB:
   * P. Pracht, E. Caldeweyher, S. Ehlert, S. Grimme, ChemRxiv, 2019, preprint.
     DOI: 10.26434/chemrxiv.8326202.v1
   for GFN-FF:
   * S. Spicher and S. Grimme, Angew. Chem. Int. Ed., 2020, 59, 15665-15673.
     DOI: 10.1002/anie.202004239
   
   for ALPB and GBSA implicit solvation:
   * S. Ehlert, M. Stahn, S. Spicher, S. Grimme, J. Chem. Theory Comput.,
     2021, 17, 4250-4261. DOI: 10.1021/acs.jctc.1c00471
   
   for ddCOSMO and CPCM-X implicit solvation:
   * M. Stahn, S. Ehlert, S. Grimme, J. Phys. Chem. A,
     2023, XX, XXXX-XXXX. DOI: 10.1021/acs.jpca.3c04382
   
   for DFT-D4:
   * E. Caldeweyher, C. Bannwarth and S. Grimme, J. Chem. Phys., 2017,
     147, 034112. DOI: 10.1063/1.4993215
   * E. Caldeweyher, S. Ehlert, A. Hansen, H. Neugebauer, S. Spicher,
     C. Bannwarth and S. Grimme, J. Chem. Phys., 2019, 150, 154122.
     DOI: 10.1063/1.5090222
   * E. Caldeweyher, J.-M. Mewes, S. Ehlert and S. Grimme, Phys. Chem. Chem. Phys.
     2020, 22, 8499-8512. DOI: 10.1039/D0CP00502A
   
   for sTDA-xTB:
   * S. Grimme and C. Bannwarth, J. Chem. Phys., 2016, 145, 054103.
     DOI: 10.1063/1.4959605
   
   in the mass-spec context:
   * V. Asgeirsson, C. Bauer and S. Grimme, Chem. Sci., 2017, 8, 4879.
     DOI: 10.1039/c7sc00601b
   * J. Koopman and S. Grimme, ACS Omega 2019, 4, 12, 15120-15133.
     DOI: 10.1021/acsomega.9b02011
   
   for metadynamics refer to:
   * S. Grimme, J. Chem. Theory Comput., 2019, 155, 2847-2862
     DOI: 10.1021/acs.jctc.9b00143
   
   for SPH calculations refer to:
   * S. Spicher and S. Grimme, J. Chem. Theory Comput., 2021, 17, 1701-1714
     DOI: 10.1021/acs.jctc.0c01306
   
   for ONIOM refer to:
   * C. Plett, A. Katbashev, S. Ehlert, S. Grimme, M. Bursch,
     Phys. Chem. Chem. Phys., 2023, 25, 17860-17868. DOI: 10.1039/D3CP02178E
   
   for DIPRO refer to:
   * J. Kohn, N. Gildemeister, S. Grimme, D. Fazzi, A. Hansen,
     J. Chem. Phys., 2023, just accepted.
   
   for PTB refer to:
   * S. Grimme, M. Mueller, A. Hansen, J. Chem. Phys., 2023, 158, 124111.
     DOI: 10.1063/5.0137838
   
   with help from (in alphabetical order)
   P. Atkinson, C. Bannwarth, F. Bohle, G. Brandenburg, E. Caldeweyher
   M. Checinski, S. Dohm, S. Ehlert, S. Ehrlich, I. Gerasimov, C. Hölzer
   A. Katbashev, J. Kohn, J. Koopman, C. Lavigne, S. Lehtola, F. März, M. Müller,
   F. Musil, H. Neugebauer, J. Pisarek, C. Plett, P. Pracht, F. Pultar,
   J. Seibert, P. Shushkov, S. Spicher, M. Stahn, M. Steiner, T. Strunk,
   J. Stückrath, T. Rose, and J. Unsleber
   
 * started run on 2024/09/18 at 22:04:01.316     
   ID    Z sym.   atoms
    1    6 C      1, 2, 5-7, 15, 19, 21
    2    1 H      3, 8-14, 16-18, 20, 22
    3   14 Si     4
    4    7 N      23

           -------------------------------------------------
          |                Calculation Setup                |
           -------------------------------------------------

          program call               : /Orca/otool_xtb /OrcaJobs/Jobs/CPDMSA_goat/CPDMSA_goat_XTB.xyz --grad -c 0 -u 0 -P 8 --namespace /OrcaJobs/Jobs/CPDMSA_goat/CPDMSA_goat --input /OrcaJobs/Jobs/CPDMSA_goat/CPDMSA_goat_XTB.input.tmp --acc 0.200000
          hostname                   : 32f47f2a0228
          calculation namespace      : /OrcaJobs/Jobs/CPDMSA_goat/CPDMSA_goat
          coordinate file            : /OrcaJobs/Jobs/CPDMSA_goat/CPDMSA_goat_XTB.xyz
          omp threads                :                     8


           -------------------------------------------------
          |                 G F N 2 - x T B                 |
           -------------------------------------------------

        Reference                      10.1021/acs.jctc.8b01176
      * Hamiltonian:
        H0-scaling (s, p, d)           1.850000    2.230000    2.230000
        zeta-weighting                 0.500000
      * Dispersion:
        s8                             2.700000
        a1                             0.520000
        a2                             5.000000
        s9                             5.000000
      * Repulsion:
        kExp                           1.500000    1.000000
        rExp                           1.000000
      * Coulomb:
        alpha                          2.000000
        third order                    shell-resolved
        anisotropic                    true
        a3                             3.000000
        a5                             4.000000
        cn-shift                       1.200000
        cn-exp                         4.000000
        max-rad                        5.000000


          ...................................................
          :                      SETUP                      :
          :.................................................:
          :  # basis functions                  59          :
          :  # atomic orbitals                  58          :
          :  # shells                           34          :
          :  # electrons                        54          :
          :  max. iterations                   250          :
          :  Hamiltonian                  GFN2-xTB          :
          :  restarted?                      false          :
          :  GBSA solvation                  false          :
          :  PC potential                    false          :
          :  electronic temp.          300.0000000     K    :
          :  accuracy                    0.2000000          :
          :  -> integral cutoff          0.3198970E+02      :
          :  -> integral neglect         0.2000000E-08      :
          :  -> SCF convergence          0.2000000E-06 Eh   :
          :  -> wf. convergence          0.2000000E-04 e    :
          :  Broyden damping             0.4000000          :
          :  net charge                          0          :
          :  unpaired electrons                  0          :
          ...................................................

 iter      E             dE          RMSdq      gap      omega  full diag
   1    -28.6956608 -0.286957E+02  0.566E+00    5.28       0.0  T
   2    -28.7559326 -0.602718E-01  0.332E+00    5.09       1.0  T
   3    -28.7114641  0.444685E-01  0.203E+00    4.99       1.0  T
   4    -28.7730129 -0.615488E-01  0.763E-01    4.96       1.0  T
   5    -28.7815989 -0.858598E-02  0.327E-01    4.94       1.0  T
   6    -28.7819950 -0.396077E-03  0.224E-01    5.00       1.0  T
   7    -28.7825587 -0.563655E-03  0.128E-01    5.01       1.0  T
   8    -28.7825680 -0.928907E-05  0.802E-02    5.00       1.0  T
   9    -28.7825995 -0.315599E-04  0.232E-02    5.00       1.0  T
  10    -28.7825999 -0.428327E-06  0.912E-03    5.00       2.3  T
  11    -28.7826002 -0.237969E-06  0.258E-03    5.00       8.1  T
  12    -28.7826002 -0.104741E-07  0.122E-03    5.00      17.1  T
  13    -28.7826002 -0.112364E-07  0.434E-04    5.00      48.0  T
  14    -28.7826002 -0.206256E-09  0.191E-04    5.00     109.2  T
  15    -28.7826002 -0.143377E-09  0.847E-05    5.00     246.2  T

   *** convergence criteria satisfied after 15 iterations ***

         #    Occupation            Energy/Eh            Energy/eV
      -------------------------------------------------------------
         1        2.0000           -0.7471221             -20.3302
       ...           ...                  ...                  ...
        21        2.0000           -0.4402228             -11.9791
        22        2.0000           -0.4266043             -11.6085
        23        2.0000           -0.4261787             -11.5969
        24        2.0000           -0.4253451             -11.5742
        25        2.0000           -0.4195605             -11.4168
        26        2.0000           -0.4028688             -10.9626
        27        2.0000           -0.3971448             -10.8069 (HOMO)
        28                         -0.2133727              -5.8062 (LUMO)
        29                         -0.2074814              -5.6459
        30                         -0.2056782              -5.5968
        31                         -0.2052035              -5.5839
        32                         -0.1465244              -3.9871
       ...                                ...                  ...
        58                          1.2875142              35.0350
      -------------------------------------------------------------
                  HL-Gap            0.1837721 Eh            5.0007 eV
             Fermi-level           -0.3052587 Eh           -8.3065 eV

 SCC (total)                   0 d,  0 h,  0 min,  0.057 sec
 SCC setup                      ...        0 min,  0.000 sec (  0.561%)
 Dispersion                     ...        0 min,  0.000 sec (  0.349%)
 classical contributions        ...        0 min,  0.000 sec (  0.042%)
 integral evaluation            ...        0 min,  0.031 sec ( 53.711%)
 iterations                     ...        0 min,  0.022 sec ( 38.830%)
 molecular gradient             ...        0 min,  0.003 sec (  5.492%)
 printout                       ...        0 min,  0.001 sec (  0.940%)

         :::::::::::::::::::::::::::::::::::::::::::::::::::::
         ::                     SUMMARY                     ::
         :::::::::::::::::::::::::::::::::::::::::::::::::::::
         :: total energy             -28.274322781627 Eh    ::
         :: gradient norm              0.067775093576 Eh/a0 ::
         :: HOMO-LUMO gap              5.000694157168 eV    ::
         ::.................................................::
         :: SCC energy               -28.782526566735 Eh    ::
         :: -> isotropic ES            0.029978927265 Eh    ::
         :: -> anisotropic ES          0.005200070534 Eh    ::
         :: -> anisotropic XC          0.035850200997 Eh    ::
         :: -> dispersion             -0.016804839775 Eh    ::
         :: repulsion energy           0.508203785108 Eh    ::
         :: add. restraining           0.000000000000 Eh    ::
         :: total charge              -0.000000000000 e     ::
         :::::::::::::::::::::::::::::::::::::::::::::::::::::


Property printout bound to 'properties.out'

           -------------------------------------------------
          | TOTAL ENERGY              -28.274322781627 Eh   |
          | GRADIENT NORM               0.067775093576 Eh/α |
          | HOMO-LUMO GAP               5.000694157168 eV   |
           -------------------------------------------------

------------------------------------------------------------------------
 * finished run on 2024/09/18 at 22:04:01.399     
------------------------------------------------------------------------
 total:
 * wall-time:     0 d,  0 h,  0 min,  0.082 sec
 *  cpu-time:     0 d,  0 h,  0 min,  0.532 sec
 * ratio c/w:     6.492 speedup
 SCF:
 * wall-time:     0 d,  0 h,  0 min,  0.057 sec
 *  cpu-time:     0 d,  0 h,  0 min,  0.408 sec
 * ratio c/w:     7.108 speedup


-------------------------   --------------------
FINAL SINGLE POINT ENERGY       -28.274322781630
-------------------------   --------------------


-------------
DIPOLE MOMENT
-------------
                                X             Y             Z
Total Dipole Moment    :     -1.46500      -0.37500       0.25800
                        -----------------------------------------
Magnitude (a.u.)       :      1.53408
Magnitude (Debye)      :      3.89933

------------------------------------------------------------------------------
                         ORCA GEOMETRY RELAXATION STEP
------------------------------------------------------------------------------

Reading the OPT-File                    .... done
Getting information on internals        .... done
Copying old internal coords+grads       .... done
Making the new internal coordinates     .... (2022 redundants) done
Validating the new internal coordinates .... (2022 redundants) done
Calculating the B-matrix                .... done
Calculating the G,G- and P matrices     .... done
Transforming gradient to internals      .... done
Projecting the internal gradient        .... done
Number of atoms                         ....  23
Number of internal coordinates          .... 101
Current Energy                          ....   -28.274322782 Eh
Current gradient norm                   ....     0.067775094 Eh/bohr
Maximum allowed component of the step   ....  0.300
Current trust radius                    ....  0.300
Evaluating the initial hessian          ....  (Almloef) done
Projecting the Hessian                  .... done
Forming the augmented Hessian           .... done
Diagonalizing the augmented Hessian     .... done
Last element of RFO vector              ....  0.994227616
Lowest eigenvalues of augmented Hessian:
 -0.005441277  0.003417819  0.003658344  0.003660088  0.009842791
Length of the computed step             ....  0.107914337
The final length of the internal step   ....  0.107914337
Converting the step to Cartesian space:
 Initial RMS(Int)=    0.0107378778
Transforming coordinates:
 Iter   0:  RMS(Cart)=    0.0264023249 RMS(Int)=    0.0107280531
 Iter   5:  RMS(Cart)=    0.0000019156 RMS(Int)=    0.0000008417
 Iter  10:  RMS(Cart)=    0.0000000575 RMS(Int)=    0.0000000249
done
Storing new coordinates                 .... done

                                .--------------------.
          ----------------------|Geometry convergence|-------------------------
          Item                value                   Tolerance       Converged
          ---------------------------------------------------------------------
          RMS gradient        0.0060988693            0.0001000000      NO
          MAX gradient        0.0414265108            0.0003000000      NO
          RMS step            0.0107378778            0.0020000000      NO
          MAX step            0.0381016482            0.0040000000      NO
          ........................................................
          Max(Bonds)      0.0202      Max(Angles)    0.85
          Max(Dihed)        0.90      Max(Improp)    0.00
          ---------------------------------------------------------------------

The optimization has not yet converged - more geometry cycles are needed


    ---------------------------------------------------------------------------
                         Redundant Internal Coordinates
                            (Angstroem and degrees)

        Definition                    Value    dE/dq     Step     New-Value
    ----------------------------------------------------------------------------
     1. B(C   1,C   0)                1.2148  0.025300 -0.0112    1.2036   
     2. B(H   2,C   0)                1.0676  0.010782 -0.0144    1.0532   
     3. B(Si  3,C   1)                1.8414 -0.008539  0.0086    1.8500   
     4. B(C   4,Si  3)                1.8982 -0.007494  0.0093    1.9076   
     5. B(C   5,Si  3)                1.8824 -0.009577  0.0113    1.8937   
     6. B(C   6,Si  3)                1.8825 -0.009561  0.0112    1.8937   
     7. B(H   7,C   6)                1.0958  0.006165 -0.0091    1.0867   
     8. B(H   8,C   6)                1.0967  0.006334 -0.0094    1.0873   
     9. B(H   9,C   6)                1.0958  0.006356 -0.0094    1.0864   
    10. B(H  10,C   5)                1.0958  0.006176 -0.0091    1.0867   
    11. B(H  11,C   5)                1.0958  0.006353 -0.0094    1.0864   
    12. B(H  12,C   5)                1.0967  0.006344 -0.0094    1.0873   
    13. B(H  13,C   4)                1.0996  0.004525 -0.0068    1.0928   
    14. B(C  14,C   4)                1.5380  0.011897 -0.0171    1.5209   
    15. B(H  15,C   4)                1.0996  0.004541 -0.0068    1.0928   
    16. B(H  16,C  14)                1.0958  0.002351 -0.0035    1.0924   
    17. B(H  17,C  14)                1.0958  0.002356 -0.0035    1.0923   
    18. B(C  18,C  14)                1.5481  0.008940 -0.0133    1.5348   
    19. B(H  19,C  18)                1.0969  0.001617 -0.0024    1.0945   
    20. B(C  20,C  18)                1.4630  0.018415 -0.0202    1.4428   
    21. B(H  21,C  18)                1.0969  0.001632 -0.0024    1.0945   
    22. B(N  22,C  20)                1.1601  0.041427 -0.0168    1.1433   
    23. L(C   1,C   0,H   2, 2)       180.00  0.000078   -0.01    179.99   
    24. L(C   1,C   0,H   2, 1)       180.00 -0.000133    0.02    180.02   
    25. L(C   0,C   1,Si  3,C   4, 1) 179.78 -0.000457    0.05    179.83   
    26. L(C   0,C   1,Si  3,C   4, 2) 180.20  0.000028   -0.00    180.19   
    27. A(C   1,Si  3,C   5)          108.63 -0.000219    0.08    108.71   
    28. A(C   4,Si  3,C   5)          110.98  0.000108   -0.04    110.95   
    29. A(C   4,Si  3,C   6)          110.97  0.000136   -0.04    110.94   
    30. A(C   1,Si  3,C   6)          108.65  0.000009    0.07    108.72   
    31. A(C   1,Si  3,C   4)          106.65  0.000365   -0.15    106.49   
    32. A(C   5,Si  3,C   6)          110.81 -0.000380    0.07    110.88   
    33. A(H  13,C   4,C  14)          109.77  0.001058   -0.43    109.34   
    34. A(Si  3,C   4,H  15)          107.87 -0.002956    0.64    108.51   
    35. A(C  14,C   4,H  15)          109.80  0.001320   -0.45    109.35   
    36. A(Si  3,C   4,C  14)          115.20  0.002927   -0.47    114.73   
    37. A(H  13,C   4,H  15)          105.90  0.000304    0.14    106.04   
    38. A(Si  3,C   4,H  13)          107.87 -0.002959    0.64    108.52   
    39. A(H  11,C   5,H  12)          107.67  0.001329   -0.22    107.45   
    40. A(H  10,C   5,H  12)          108.04  0.001453   -0.27    107.77   
    41. A(Si  3,C   5,H  12)          111.27 -0.001440    0.25    111.52   
    42. A(H  10,C   5,H  11)          107.70  0.001282   -0.23    107.47   
    43. A(Si  3,C   5,H  11)          110.68 -0.001167    0.21    110.89   
    44. A(Si  3,C   5,H  10)          111.33 -0.001234    0.21    111.54   
    45. A(H   7,C   6,H   9)          107.72  0.001339   -0.24    107.48   
    46. A(Si  3,C   6,H   9)          110.69 -0.001162    0.21    110.90   
    47. A(H   7,C   6,H   8)          108.04  0.001491   -0.27    107.77   
    48. A(Si  3,C   6,H   8)          111.25 -0.001491    0.26    111.51   
    49. A(Si  3,C   6,H   7)          111.31 -0.001235    0.21    111.52   
    50. A(H   8,C   6,H   9)          107.68  0.001283   -0.21    107.46   
    51. A(H  16,C  14,H  17)          106.75 -0.001020    0.62    107.37   
    52. A(C   4,C  14,H  17)          110.67  0.001163   -0.32    110.35   
    53. A(C   4,C  14,H  16)          110.63  0.000385   -0.28    110.35   
    54. A(H  17,C  14,C  18)          108.46 -0.001189    0.27    108.73   
    55. A(H  16,C  14,C  18)          108.43 -0.001643    0.30    108.73   
    56. A(C   4,C  14,C  18)          111.74  0.002083   -0.51    111.23   
    57. A(C  20,C  18,H  21)          108.45 -0.000377   -0.07    108.39   
    58. A(H  19,C  18,H  21)          107.02 -0.002309    0.77    107.79   
    59. A(C  14,C  18,H  21)          110.09 -0.000315    0.12    110.21   
    60. A(H  19,C  18,C  20)          108.44 -0.001126   -0.04    108.40   
    61. A(C  14,C  18,C  20)          112.59  0.004528   -0.85    111.73   
    62. A(C  14,C  18,H  19)          110.08 -0.000748    0.14    110.22   
    63. L(C  18,C  20,N  22,C  14, 2) 179.89 -0.000025    0.00    179.90   
    64. L(C  18,C  20,N  22,C  14, 1) 178.45 -0.000762    0.09    178.55   
    65. D(C  14,C   4,Si  3,C   1)   -179.95  0.000017    0.04   -179.91   
    66. D(H  13,C   4,Si  3,C   1)    -56.95  0.001136   -0.35    -57.30   
    67. D(C  14,C   4,Si  3,C   6)     61.88 -0.000285    0.06     61.95   
    68. D(H  13,C   4,Si  3,C   6)   -175.12  0.000834   -0.32   -175.45   
    69. D(H  13,C   4,Si  3,C   5)     61.20  0.001149   -0.36     60.84   
    70. D(C  14,C   4,Si  3,C   5)    -61.80  0.000030    0.02    -61.77   
    71. D(H  15,C   4,Si  3,C   5)    175.18 -0.001433    0.43    175.61   
    72. D(H  15,C   4,Si  3,C   1)     57.03 -0.001446    0.45     57.48   
    73. D(H  11,C   5,Si  3,C   6)     59.42 -0.000175    0.27     59.69   
    74. D(H  11,C   5,Si  3,C   1)    -59.87  0.000178    0.09    -59.78   
    75. D(H  11,C   5,Si  3,C   4)   -176.81 -0.000195    0.25   -176.56   
    76. D(H  12,C   5,Si  3,C   1)   -179.54  0.000225    0.05   -179.48   
    77. D(H  10,C   5,Si  3,C   6)    179.17 -0.000150    0.26    179.43   
    78. D(H  10,C   5,Si  3,C   4)    -57.06 -0.000169    0.24    -56.82   
    79. D(H  10,C   5,Si  3,C   1)     59.88  0.000204    0.08     59.96   
    80. D(H  12,C   5,Si  3,C   4)     63.52 -0.000148    0.21     63.73   
    81. D(H   9,C   6,Si  3,C   4)    176.76  0.000323   -0.26    176.50   
    82. D(H   8,C   6,Si  3,C   5)     60.21  0.000152   -0.24     59.97   
    83. D(H   8,C   6,Si  3,C   4)    -63.57  0.000188   -0.22    -63.78   
    84. D(H   8,C   6,Si  3,C   1)    179.48 -0.000339   -0.05    179.43   
    85. D(H   7,C   6,Si  3,C   5)   -179.23  0.000187   -0.26   -179.49   
    86. D(H   9,C   6,Si  3,C   1)     59.81 -0.000204   -0.09     59.71   
    87. D(H   7,C   6,Si  3,C   4)     56.99  0.000223   -0.24     56.75   
    88. D(H   7,C   6,Si  3,C   1)    -59.96 -0.000304   -0.07    -60.04   
    89. D(H  17,C  14,C   4,H  15)     63.06 -0.000682   -0.05     63.01   
    90. D(H  17,C  14,C   4,H  13)    179.08  0.001055   -0.38    178.70   
    91. D(H  17,C  14,C   4,Si  3)    -58.94  0.000082   -0.21    -59.14   
    92. D(H  16,C  14,C   4,H  15)   -178.84 -0.000975    0.34   -178.50   
    93. D(H  16,C  14,C   4,H  13)    -62.81  0.000763    0.00    -62.81   
    94. D(H  16,C  14,C   4,Si  3)     59.17 -0.000211    0.18     59.35   
    95. D(H  19,C  18,C  14,C   4)    -58.77  0.001340   -0.42    -59.18   
    96. D(H  21,C  18,C  14,C   4)     58.98 -0.002131    0.69     59.67   
    97. D(C  20,C  18,C  14,H  17)     57.86 -0.001759    0.66     58.53   
    98. D(C  20,C  18,C  14,H  16)    -57.70  0.000943   -0.37    -58.06   
    99. D(C  20,C  18,C  14,C   4)   -179.89  0.000236    0.12   -179.77   
   100. D(H  19,C  18,C  14,H  17)    178.98 -0.000655    0.13    179.12   
   101. D(H  19,C  18,C  14,H  16)     63.42  0.002047   -0.90     62.53   
    ----------------------------------------------------------------------------

Geometry step timings:
Preparation and reading OPT file:      0.001 s ( 6.995 %)
Internal coordinates            :      0.000 s ( 1.358 %)
B/P matrices and projection     :      0.002 s (26.144 %)
Hessian update/contruction      :      0.001 s (11.171 %)
Making the step                 :      0.001 s (19.007 %)
Converting the step to Cartesian:      0.000 s ( 4.448 %)
Storing new data                :      0.000 s ( 1.241 %)
Checking convergence            :      0.000 s ( 0.091 %)
Final printing                  :      0.002 s (29.467 %)
Total time                      :      0.008 s

Time for energy+gradient        :      0.090 s
Time for complete geometry iter :      0.100 s

         *************************************************************
         *                GEOMETRY OPTIMIZATION CYCLE   2            *
         *************************************************************
---------------------------------
CARTESIAN COORDINATES (ANGSTROEM)
---------------------------------
  C    -5.050929    1.841950    0.170138
  C    -3.989015    2.407683    0.199178
  H    -5.980348    1.347259    0.144945
  Si   -2.353556    3.271387    0.243121
  C    -1.197852    2.302528   -0.924960
  C    -1.699119    3.242829    2.019903
  C    -2.589303    5.050651   -0.360926
  H    -2.973197    5.079120   -1.377132
  H    -1.653841    5.604625   -0.343898
  H    -3.295391    5.583683    0.269647
  H    -1.569275    2.226126    2.380898
  H    -2.388270    3.743018    2.694613
  H    -0.739829    3.748447    2.099769
  H    -1.154269    1.264113   -0.587249
  C     0.214054    2.858406   -1.028161
  H    -1.650877    2.277735   -1.919150
  H     0.692190    2.865548   -0.046025
  H     0.190834    3.889875   -1.386941
  C     1.071719    2.022117   -1.987689
  H     1.124449    0.985104   -1.641746
  C     2.415642    2.537051   -2.089682
  H     0.626556    2.018786   -2.987528
  N     3.473944    2.965408   -2.150826

----------------------------
CARTESIAN COORDINATES (A.U.)
----------------------------
  NO LB    ZA    FRAG    MASS        X           Y           Z
   0 C   6.0000    1    12.011   -9.544873    3.480780    0.321515
   1 C   6.0000    1    12.011   -7.538145    4.549861    0.376392
   2 H   1.0000    1     1.008  -11.301219    2.545951    0.273906
   3 Si 14.0000    1    28.086   -4.447577    6.182026    0.459432
   4 C   6.0000    1    12.011   -2.263612    4.351147   -1.747921
   5 C   6.0000    1    12.011   -3.210870    6.128059    3.817063
   6 C   6.0000    1    12.011   -4.893074    9.544347   -0.682051
   7 H   1.0000    1     1.008   -5.618527    9.598145   -2.602402
   8 H   1.0000    1     1.008   -3.125306   10.591206   -0.649873
   9 H   1.0000    1     1.008   -6.227386   10.551632    0.509559
  10 H   1.0000    1     1.008   -2.965501    4.206768    4.499245
  11 H   1.0000    1     1.008   -4.513176    7.073278    5.092082
  12 H   1.0000    1     1.008   -1.398075    7.083539    3.967989
  13 H   1.0000    1     1.008   -2.181252    2.388826   -1.109739
  14 C   6.0000    1    12.011    0.404503    5.401605   -1.942943
  15 H   1.0000    1     1.008   -3.119705    4.304296   -3.626668
  16 H   1.0000    1     1.008    1.308050    5.415100   -0.086974
  17 H   1.0000    1     1.008    0.360624    7.350799   -2.620939
  18 C   6.0000    1    12.011    2.025256    3.821247   -3.756189
  19 H   1.0000    1     1.008    2.124901    1.861577   -3.102450
  20 C   6.0000    1    12.011    4.564902    4.794331   -3.948927
  21 H   1.0000    1     1.008    1.184019    3.814953   -5.645611
  22 N   7.0000    1    14.007    6.564802    5.603809   -4.064471

      -----------------------------------------------------------      
     |                   =====================                   |     
     |                           x T B                           |     
     |                   =====================                   |     
     |                         S. Grimme                         |     
     |          Mulliken Center for Theoretical Chemistry        |     
     |                    University of Bonn                     |     
      -----------------------------------------------------------      

   * xtb version 6.7.1 (edcfbbe) compiled by 'albert@albert-system' on 2024-07-22

   xtb is free software: you can redistribute it and/or modify it under
   the terms of the GNU Lesser General Public License as published by
   the Free Software Foundation, either version 3 of the License, or
   (at your option) any later version.
   
   xtb is distributed in the hope that it will be useful,
   but WITHOUT ANY WARRANTY; without even the implied warranty of
   MERCHANTABILITY or FITNESS FOR A PARTICULAR PURPOSE.  See the
   GNU Lesser General Public License for more details.
   
   Cite this work as:
   * C. Bannwarth, E. Caldeweyher, S. Ehlert, A. Hansen, P. Pracht,
     J. Seibert, S. Spicher, S. Grimme, WIREs Comput. Mol. Sci., 2020, 11,
     e01493. DOI: 10.1002/wcms.1493
   
   for GFN2-xTB:
   * C. Bannwarth, S. Ehlert and S. Grimme., J. Chem. Theory Comput., 2019,
     15, 1652-1671. DOI: 10.1021/acs.jctc.8b01176
   for GFN1-xTB:
   * S. Grimme, C. Bannwarth, P. Shushkov, J. Chem. Theory Comput., 2017,
     13, 1989-2009. DOI: 10.1021/acs.jctc.7b00118
   for GFN0-xTB:
   * P. Pracht, E. Caldeweyher, S. Ehlert, S. Grimme, ChemRxiv, 2019, preprint.
     DOI: 10.26434/chemrxiv.8326202.v1
   for GFN-FF:
   * S. Spicher and S. Grimme, Angew. Chem. Int. Ed., 2020, 59, 15665-15673.
     DOI: 10.1002/anie.202004239
   
   for ALPB and GBSA implicit solvation:
   * S. Ehlert, M. Stahn, S. Spicher, S. Grimme, J. Chem. Theory Comput.,
     2021, 17, 4250-4261. DOI: 10.1021/acs.jctc.1c00471
   
   for ddCOSMO and CPCM-X implicit solvation:
   * M. Stahn, S. Ehlert, S. Grimme, J. Phys. Chem. A,
     2023, XX, XXXX-XXXX. DOI: 10.1021/acs.jpca.3c04382
   
   for DFT-D4:
   * E. Caldeweyher, C. Bannwarth and S. Grimme, J. Chem. Phys., 2017,
     147, 034112. DOI: 10.1063/1.4993215
   * E. Caldeweyher, S. Ehlert, A. Hansen, H. Neugebauer, S. Spicher,
     C. Bannwarth and S. Grimme, J. Chem. Phys., 2019, 150, 154122.
     DOI: 10.1063/1.5090222
   * E. Caldeweyher, J.-M. Mewes, S. Ehlert and S. Grimme, Phys. Chem. Chem. Phys.
     2020, 22, 8499-8512. DOI: 10.1039/D0CP00502A
   
   for sTDA-xTB:
   * S. Grimme and C. Bannwarth, J. Chem. Phys., 2016, 145, 054103.
     DOI: 10.1063/1.4959605
   
   in the mass-spec context:
   * V. Asgeirsson, C. Bauer and S. Grimme, Chem. Sci., 2017, 8, 4879.
     DOI: 10.1039/c7sc00601b
   * J. Koopman and S. Grimme, ACS Omega 2019, 4, 12, 15120-15133.
     DOI: 10.1021/acsomega.9b02011
   
   for metadynamics refer to:
   * S. Grimme, J. Chem. Theory Comput., 2019, 155, 2847-2862
     DOI: 10.1021/acs.jctc.9b00143
   
   for SPH calculations refer to:
   * S. Spicher and S. Grimme, J. Chem. Theory Comput., 2021, 17, 1701-1714
     DOI: 10.1021/acs.jctc.0c01306
   
   for ONIOM refer to:
   * C. Plett, A. Katbashev, S. Ehlert, S. Grimme, M. Bursch,
     Phys. Chem. Chem. Phys., 2023, 25, 17860-17868. DOI: 10.1039/D3CP02178E
   
   for DIPRO refer to:
   * J. Kohn, N. Gildemeister, S. Grimme, D. Fazzi, A. Hansen,
     J. Chem. Phys., 2023, just accepted.
   
   for PTB refer to:
   * S. Grimme, M. Mueller, A. Hansen, J. Chem. Phys., 2023, 158, 124111.
     DOI: 10.1063/5.0137838
   
   with help from (in alphabetical order)
   P. Atkinson, C. Bannwarth, F. Bohle, G. Brandenburg, E. Caldeweyher
   M. Checinski, S. Dohm, S. Ehlert, S. Ehrlich, I. Gerasimov, C. Hölzer
   A. Katbashev, J. Kohn, J. Koopman, C. Lavigne, S. Lehtola, F. März, M. Müller,
   F. Musil, H. Neugebauer, J. Pisarek, C. Plett, P. Pracht, F. Pultar,
   J. Seibert, P. Shushkov, S. Spicher, M. Stahn, M. Steiner, T. Strunk,
   J. Stückrath, T. Rose, and J. Unsleber
   
 * started run on 2024/09/18 at 22:04:01.416     
   ID    Z sym.   atoms
    1    6 C      1, 2, 5-7, 15, 19, 21
    2    1 H      3, 8-14, 16-18, 20, 22
    3   14 Si     4
    4    7 N      23

           -------------------------------------------------
          |                Calculation Setup                |
           -------------------------------------------------

          program call               : /Orca/otool_xtb /OrcaJobs/Jobs/CPDMSA_goat/CPDMSA_goat_XTB.xyz --grad -c 0 -u 0 -P 8 --namespace /OrcaJobs/Jobs/CPDMSA_goat/CPDMSA_goat --input /OrcaJobs/Jobs/CPDMSA_goat/CPDMSA_goat_XTB.input.tmp --acc 0.200000
          hostname                   : 32f47f2a0228
          calculation namespace      : /OrcaJobs/Jobs/CPDMSA_goat/CPDMSA_goat
          coordinate file            : /OrcaJobs/Jobs/CPDMSA_goat/CPDMSA_goat_XTB.xyz
          omp threads                :                     8


           -------------------------------------------------
          |                 G F N 2 - x T B                 |
           -------------------------------------------------

        Reference                      10.1021/acs.jctc.8b01176
      * Hamiltonian:
        H0-scaling (s, p, d)           1.850000    2.230000    2.230000
        zeta-weighting                 0.500000
      * Dispersion:
        s8                             2.700000
        a1                             0.520000
        a2                             5.000000
        s9                             5.000000
      * Repulsion:
        kExp                           1.500000    1.000000
        rExp                           1.000000
      * Coulomb:
        alpha                          2.000000
        third order                    shell-resolved
        anisotropic                    true
        a3                             3.000000
        a5                             4.000000
        cn-shift                       1.200000
        cn-exp                         4.000000
        max-rad                        5.000000

q/qsh data taken from xtbrestart
CAMM data taken from xtbrestart

          ...................................................
          :                      SETUP                      :
          :.................................................:
          :  # basis functions                  59          :
          :  # atomic orbitals                  58          :
          :  # shells                           34          :
          :  # electrons                        54          :
          :  max. iterations                   250          :
          :  Hamiltonian                  GFN2-xTB          :
          :  restarted?                       true          :
          :  GBSA solvation                  false          :
          :  PC potential                    false          :
          :  electronic temp.          300.0000000     K    :
          :  accuracy                    0.2000000          :
          :  -> integral cutoff          0.3198970E+02      :
          :  -> integral neglect         0.2000000E-08      :
          :  -> SCF convergence          0.2000000E-06 Eh   :
          :  -> wf. convergence          0.2000000E-04 e    :
          :  Broyden damping             0.4000000          :
          :  net charge                          0          :
          :  unpaired electrons                  0          :
          ...................................................

 iter      E             dE          RMSdq      gap      omega  full diag
   1    -28.8185592 -0.288186E+02  0.203E-01    5.13       0.0  T
   2    -28.8185698 -0.105583E-04  0.145E-01    5.13       1.0  T
   3    -28.8185181  0.516458E-04  0.984E-02    5.14       1.0  T
   4    -28.8186275 -0.109355E-03  0.191E-02    5.14       1.1  T
   5    -28.8186280 -0.556849E-06  0.135E-02    5.14       1.5  T
   6    -28.8186285 -0.511258E-06  0.817E-03    5.14       2.6  T
   7    -28.8186286 -0.586668E-07  0.388E-03    5.14       5.4  T
   8    -28.8186287 -0.780491E-07  0.272E-03    5.14       7.7  T
   9    -28.8186288 -0.113480E-06  0.773E-04    5.14      27.0  T
  10    -28.8186288 -0.901732E-09  0.342E-04    5.14      60.9  T
  11    -28.8186288 -0.108791E-09  0.122E-04    5.14     170.6  T
  12    -28.8186288 -0.174545E-10  0.276E-05    5.14     755.5  T

   *** convergence criteria satisfied after 12 iterations ***

         #    Occupation            Energy/Eh            Energy/eV
      -------------------------------------------------------------
         1        2.0000           -0.7457511             -20.2929
       ...           ...                  ...                  ...
        21        2.0000           -0.4400597             -11.9746
        22        2.0000           -0.4274900             -11.6326
        23        2.0000           -0.4270455             -11.6205
        24        2.0000           -0.4241095             -11.5406
        25        2.0000           -0.4184642             -11.3870
        26        2.0000           -0.4031637             -10.9706
        27        2.0000           -0.3965930             -10.7918 (HOMO)
        28                         -0.2078082              -5.6547 (LUMO)
        29                         -0.2049079              -5.5758
        30                         -0.1991940              -5.4203
        31                         -0.1973537              -5.3703
        32                         -0.1483072              -4.0356
       ...                                ...                  ...
        58                          1.3506365              36.7527
      -------------------------------------------------------------
                  HL-Gap            0.1887849 Eh            5.1371 eV
             Fermi-level           -0.3022006 Eh           -8.2233 eV

 SCC (total)                   0 d,  0 h,  0 min,  0.048 sec
 SCC setup                      ...        0 min,  0.000 sec (  0.685%)
 Dispersion                     ...        0 min,  0.000 sec (  0.422%)
 classical contributions        ...        0 min,  0.000 sec (  0.050%)
 integral evaluation            ...        0 min,  0.033 sec ( 68.530%)
 iterations                     ...        0 min,  0.012 sec ( 24.400%)
 molecular gradient             ...        0 min,  0.003 sec (  5.283%)
 printout                       ...        0 min,  0.000 sec (  0.553%)

         :::::::::::::::::::::::::::::::::::::::::::::::::::::
         ::                     SUMMARY                     ::
         :::::::::::::::::::::::::::::::::::::::::::::::::::::
         :: total energy             -28.277423819040 Eh    ::
         :: gradient norm              0.011740422618 Eh/a0 ::
         :: HOMO-LUMO gap              5.137097878297 eV    ::
         ::.................................................::
         :: SCC energy               -28.818551573646 Eh    ::
         :: -> isotropic ES            0.030327659186 Eh    ::
         :: -> anisotropic ES          0.004733721674 Eh    ::
         :: -> anisotropic XC          0.034781507542 Eh    ::
         :: -> dispersion             -0.016841886018 Eh    ::
         :: repulsion energy           0.541127754606 Eh    ::
         :: add. restraining           0.000000000000 Eh    ::
         :: total charge               0.000000000000 e     ::
         :::::::::::::::::::::::::::::::::::::::::::::::::::::


Property printout bound to 'properties.out'

           -------------------------------------------------
          | TOTAL ENERGY              -28.277423819040 Eh   |
          | GRADIENT NORM               0.011740422618 Eh/α |
          | HOMO-LUMO GAP               5.137097878297 eV   |
           -------------------------------------------------

------------------------------------------------------------------------
 * finished run on 2024/09/18 at 22:04:01.482     
------------------------------------------------------------------------
 total:
 * wall-time:     0 d,  0 h,  0 min,  0.065 sec
 *  cpu-time:     0 d,  0 h,  0 min,  0.439 sec
 * ratio c/w:     6.731 speedup
 SCF:
 * wall-time:     0 d,  0 h,  0 min,  0.048 sec
 *  cpu-time:     0 d,  0 h,  0 min,  0.345 sec
 * ratio c/w:     7.156 speedup


-------------------------   --------------------
FINAL SINGLE POINT ENERGY       -28.277423819040
-------------------------   --------------------


-------------
DIPOLE MOMENT
-------------
                                X             Y             Z
Total Dipole Moment    :     -1.44100      -0.37200       0.24600
                        -----------------------------------------
Magnitude (a.u.)       :      1.50844
Magnitude (Debye)      :      3.83414

------------------------------------------------------------------------------
                         ORCA GEOMETRY RELAXATION STEP
------------------------------------------------------------------------------

Reading the OPT-File                    .... done
Getting information on internals        .... done
Copying old internal coords+grads       .... done
Making the new internal coordinates     .... (2022 redundants) done
Validating the new internal coordinates .... (2022 redundants) done
Calculating the B-matrix                .... done
Calculating the G,G- and P matrices     .... done
Transforming gradient to internals      .... done
Projecting the internal gradient        .... done
Number of atoms                         ....  23
Number of internal coordinates          .... 101
Current Energy                          ....   -28.277423819 Eh
Current gradient norm                   ....     0.011740423 Eh/bohr
Maximum allowed component of the step   ....  0.300
Current trust radius                    ....  0.300
Updating the Hessian (BFGS)             .... done
Forming the augmented Hessian           .... done
Diagonalizing the augmented Hessian     .... done
Last element of RFO vector              ....  0.999037629
Lowest eigenvalues of augmented Hessian:
 -0.000330075  0.003417822  0.003658397  0.003661002  0.009842820
Length of the computed step             ....  0.043903573
The final length of the internal step   ....  0.043903573
Converting the step to Cartesian space:
 Initial RMS(Int)=    0.0043685688
Transforming coordinates:
 Iter   0:  RMS(Cart)=    0.0119775630 RMS(Int)=    0.0043656895
 Iter   5:  RMS(Cart)=    0.0000016154 RMS(Int)=    0.0000007888
done
Storing new coordinates                 .... done
The predicted energy change is          ....    -0.000165356
Previously predicted energy change      ....    -0.002752322
Actually observed energy change         ....    -0.003101037
Ratio of predicted to observed change   ....     1.126698703
New trust radius                        ....     0.450000000

                                .--------------------.
          ----------------------|Geometry convergence|-------------------------
          Item                value                   Tolerance       Converged
          ---------------------------------------------------------------------
          Energy change      -0.0031010374            0.0000050000      NO
          RMS gradient        0.0010417110            0.0001000000      NO
          MAX gradient        0.0045049229            0.0003000000      NO
          RMS step            0.0043685688            0.0020000000      NO
          MAX step            0.0124391394            0.0040000000      NO
          ........................................................
          Max(Bonds)      0.0066      Max(Angles)    0.44
          Max(Dihed)        0.52      Max(Improp)    0.00
          ---------------------------------------------------------------------

The optimization has not yet converged - more geometry cycles are needed


    ---------------------------------------------------------------------------
                         Redundant Internal Coordinates
                            (Angstroem and degrees)

        Definition                    Value    dE/dq     Step     New-Value
    ----------------------------------------------------------------------------
     1. B(C   1,C   0)                1.2036  0.002495 -0.0017    1.2018   
     2. B(H   2,C   0)                1.0532  0.000504 -0.0013    1.0518   
     3. B(Si  3,C   1)                1.8500 -0.004466  0.0056    1.8556   
     4. B(C   4,Si  3)                1.9076 -0.003718  0.0057    1.9133   
     5. B(C   5,Si  3)                1.8937 -0.004505  0.0066    1.9003   
     6. B(C   6,Si  3)                1.8937 -0.004498  0.0066    1.9003   
     7. B(H   7,C   6)                1.0867  0.000362 -0.0010    1.0857   
     8. B(H   8,C   6)                1.0873  0.000400 -0.0011    1.0863   
     9. B(H   9,C   6)                1.0864  0.000399 -0.0010    1.0854   
    10. B(H  10,C   5)                1.0867  0.000367 -0.0010    1.0857   
    11. B(H  11,C   5)                1.0864  0.000401 -0.0011    1.0854   
    12. B(H  12,C   5)                1.0873  0.000399 -0.0011    1.0863   
    13. B(H  13,C   4)                1.0928  0.000285 -0.0008    1.0921   
    14. B(C  14,C   4)                1.5209 -0.000313 -0.0001    1.5208   
    15. B(H  15,C   4)                1.0928  0.000286 -0.0008    1.0921   
    16. B(H  16,C  14)                1.0924 -0.000106  0.0000    1.0924   
    17. B(H  17,C  14)                1.0923 -0.000122  0.0001    1.0924   
    18. B(C  18,C  14)                1.5348 -0.000142 -0.0003    1.5345   
    19. B(H  19,C  18)                1.0945 -0.000132  0.0001    1.0946   
    20. B(C  20,C  18)                1.4428  0.002907 -0.0045    1.4383   
    21. B(H  21,C  18)                1.0945 -0.000143  0.0002    1.0946   
    22. B(N  22,C  20)                1.1433 -0.000139 -0.0006    1.1427   
    23. L(C   1,C   0,H   2, 2)       179.99  0.000053   -0.01    179.98   
    24. L(C   1,C   0,H   2, 1)       180.02 -0.000100    0.02    180.04   
    25. L(C   0,C   1,Si  3,C   4, 1) 179.83 -0.000404    0.05    179.88   
    26. L(C   0,C   1,Si  3,C   4, 2) 180.19  0.000028   -0.00    180.19   
    27. A(C   1,Si  3,C   5)          108.71 -0.000174    0.09    108.80   
    28. A(C   4,Si  3,C   5)          110.95  0.000142   -0.06    110.88   
    29. A(C   4,Si  3,C   6)          110.93  0.000145   -0.06    110.87   
    30. A(C   1,Si  3,C   6)          108.72 -0.000069    0.09    108.81   
    31. A(C   1,Si  3,C   4)          106.49  0.000183   -0.09    106.40   
    32. A(C   5,Si  3,C   6)          110.88 -0.000222    0.05    110.93   
    33. A(H  13,C   4,C  14)          109.34  0.000034   -0.15    109.20   
    34. A(Si  3,C   4,H  15)          108.51 -0.001416    0.35    108.86   
    35. A(C  14,C   4,H  15)          109.35  0.000152   -0.16    109.20   
    36. A(Si  3,C   4,C  14)          114.73  0.002214   -0.44    114.29   
    37. A(H  13,C   4,H  15)          106.03  0.000274    0.11    106.14   
    38. A(Si  3,C   4,H  13)          108.52 -0.001410    0.35    108.86   
    39. A(H  11,C   5,H  12)          107.45  0.000252   -0.04    107.42   
    40. A(H  10,C   5,H  12)          107.77  0.000276   -0.08    107.69   
    41. A(Si  3,C   5,H  12)          111.52 -0.000393    0.09    111.61   
    42. A(H  10,C   5,H  11)          107.47  0.000170   -0.05    107.42   
    43. A(Si  3,C   5,H  11)          110.89 -0.000123    0.04    110.93   
    44. A(Si  3,C   5,H  10)          111.54 -0.000137    0.03    111.57   
    45. A(H   7,C   6,H   9)          107.48  0.000220   -0.06    107.42   
    46. A(Si  3,C   6,H   9)          110.90 -0.000126    0.04    110.94   
    47. A(H   7,C   6,H   8)          107.77  0.000315   -0.08    107.69   
    48. A(Si  3,C   6,H   8)          111.51 -0.000438    0.10    111.60   
    49. A(Si  3,C   6,H   7)          111.52 -0.000122    0.03    111.55   
    50. A(H   8,C   6,H   9)          107.46  0.000195   -0.04    107.43   
    51. A(H  16,C  14,H  17)          107.36 -0.000454    0.21    107.58   
    52. A(C   4,C  14,H  17)          110.35  0.000685   -0.20    110.15   
    53. A(C   4,C  14,H  16)          110.35  0.000484   -0.20    110.15   
    54. A(H  17,C  14,C  18)          108.73 -0.000175    0.10    108.83   
    55. A(H  16,C  14,C  18)          108.73 -0.000293    0.11    108.83   
    56. A(C   4,C  14,C  18)          111.23 -0.000274   -0.00    111.22   
    57. A(C  20,C  18,H  21)          108.38 -0.000433    0.04    108.42   
    58. A(H  19,C  18,H  21)          107.79 -0.000781    0.32    108.11   
    59. A(C  14,C  18,H  21)          110.21  0.000025    0.03    110.24   
    60. A(H  19,C  18,C  20)          108.40 -0.000620    0.03    108.43   
    61. A(C  14,C  18,C  20)          111.73  0.001783   -0.41    111.32   
    62. A(C  14,C  18,H  19)          110.22 -0.000078    0.02    110.24   
    63. L(C  18,C  20,N  22,C  14, 2) 179.90 -0.000027    0.00    179.90   
    64. L(C  18,C  20,N  22,C  14, 1) 178.55 -0.000367    0.05    178.60   
    65. D(C  14,C   4,Si  3,C   1)   -179.91  0.000010    0.00   -179.90   
    66. D(H  13,C   4,Si  3,C   1)    -57.30  0.000514   -0.23    -57.53   
    67. D(C  14,C   4,Si  3,C   6)     61.95 -0.000094   -0.01     61.94   
    68. D(H  13,C   4,Si  3,C   6)   -175.45  0.000410   -0.24   -175.69   
    69. D(H  13,C   4,Si  3,C   5)     60.83  0.000490   -0.21     60.62   
    70. D(C  14,C   4,Si  3,C   5)    -61.77 -0.000013    0.02    -61.75   
    71. D(H  15,C   4,Si  3,C   5)    175.62 -0.000666    0.27    175.88   
    72. D(H  15,C   4,Si  3,C   1)     57.48 -0.000643    0.25     57.73   
    73. D(H  11,C   5,Si  3,C   6)     59.69 -0.000219    0.52     60.21   
    74. D(H  11,C   5,Si  3,C   1)    -59.78  0.000109    0.33    -59.45   
    75. D(H  11,C   5,Si  3,C   4)   -176.56 -0.000090    0.43   -176.13   
    76. D(H  12,C   5,Si  3,C   1)   -179.48  0.000135    0.29   -179.19   
    77. D(H  10,C   5,Si  3,C   6)    179.43 -0.000179    0.50    179.93   
    78. D(H  10,C   5,Si  3,C   4)    -56.82 -0.000049    0.41    -56.41   
    79. D(H  10,C   5,Si  3,C   1)     59.96  0.000150    0.31     60.27   
    80. D(H  12,C   5,Si  3,C   4)     63.73 -0.000064    0.39     64.12   
    81. D(H   9,C   6,Si  3,C   4)    176.50  0.000183   -0.43    176.07   
    82. D(H   8,C   6,Si  3,C   5)     59.97  0.000182   -0.48     59.49   
    83. D(H   8,C   6,Si  3,C   4)    -63.78  0.000054   -0.39    -64.17   
    84. D(H   8,C   6,Si  3,C   1)    179.43 -0.000210   -0.29    179.14   
    85. D(H   7,C   6,Si  3,C   5)   -179.49  0.000198   -0.50   -179.99   
    86. D(H   9,C   6,Si  3,C   1)     59.71 -0.000081   -0.33     59.38   
    87. D(H   7,C   6,Si  3,C   4)     56.75  0.000070   -0.40     56.35   
    88. D(H   7,C   6,Si  3,C   1)    -60.03 -0.000193   -0.30    -60.34   
    89. D(H  17,C  14,C   4,H  15)     63.01 -0.000281   -0.01     63.00   
    90. D(H  17,C  14,C   4,H  13)    178.70  0.000151   -0.06    178.64   
    91. D(H  17,C  14,C   4,Si  3)    -59.14 -0.000107   -0.03    -59.17   
    92. D(H  16,C  14,C   4,H  15)   -178.50 -0.000114    0.00   -178.49   
    93. D(H  16,C  14,C   4,H  13)    -62.81  0.000318   -0.05    -62.85   
    94. D(H  16,C  14,C   4,Si  3)     59.35  0.000061   -0.02     59.33   
    95. D(H  19,C  18,C  14,C   4)    -59.18  0.000394   -0.22    -59.40   
    96. D(H  21,C  18,C  14,C   4)     59.67 -0.000603    0.20     59.87   
    97. D(C  20,C  18,C  14,H  17)     58.53 -0.000514    0.18     58.71   
    98. D(C  20,C  18,C  14,H  16)    -58.07  0.000283   -0.18    -58.24   
    99. D(C  20,C  18,C  14,C   4)   -179.77  0.000049    0.00   -179.77   
   100. D(H  19,C  18,C  14,H  17)    179.12 -0.000169   -0.03    179.08   
   101. D(H  19,C  18,C  14,H  16)     62.52  0.000628   -0.40     62.13   
    ----------------------------------------------------------------------------

Geometry step timings:
Preparation and reading OPT file:      0.001 s ( 8.515 %)
Internal coordinates            :      0.000 s ( 1.594 %)
B/P matrices and projection     :      0.002 s (26.075 %)
Hessian update/contruction      :      0.001 s ( 6.845 %)
Making the step                 :      0.001 s (18.446 %)
Converting the step to Cartesian:      0.000 s ( 3.644 %)
Storing new data                :      0.000 s ( 1.227 %)
Checking convergence            :      0.000 s ( 0.987 %)
Final printing                  :      0.003 s (32.642 %)
Total time                      :      0.008 s

Time for energy+gradient        :      0.073 s
Time for complete geometry iter :      0.084 s

         *************************************************************
         *                GEOMETRY OPTIMIZATION CYCLE   3            *
         *************************************************************
---------------------------------
CARTESIAN COORDINATES (ANGSTROEM)
---------------------------------
  C    -5.057906    1.844001    0.174364
  C    -3.996121    2.406422    0.200952
  H    -5.987508    1.352406    0.151457
  Si   -2.354261    3.270071    0.242374
  C    -1.200571    2.293794   -0.930892
  C    -1.691608    3.240590    2.023119
  C    -2.585451    5.055308   -0.366438
  H    -2.964166    5.083986   -1.383539
  H    -1.651026    5.608865   -0.346390
  H    -3.293358    5.589801    0.259029
  H    -1.556687    2.224828    2.381934
  H    -2.379474    3.735957    2.700995
  H    -0.734711    3.748575    2.102349
  H    -1.151904    1.255821   -0.594974
  C     0.209788    2.853905   -1.030245
  H    -1.648364    2.269701   -1.926631
  H     0.682477    2.860066   -0.045417
  H     0.180553    3.885463   -1.388561
  C     1.072004    2.021104   -1.988298
  H     1.130336    0.984605   -1.641288
  C     2.408046    2.545888   -2.079769
  H     0.631414    2.020052   -2.990334
  N     3.462817    2.982240   -2.133497

----------------------------
CARTESIAN COORDINATES (A.U.)
----------------------------
  NO LB    ZA    FRAG    MASS        X           Y           Z
   0 C   6.0000    1    12.011   -9.558057    3.484656    0.329499
   1 C   6.0000    1    12.011   -7.551575    4.547479    0.379744
   2 H   1.0000    1     1.008  -11.314750    2.555676    0.286212
   3 Si 14.0000    1    28.086   -4.448909    6.179538    0.458021
   4 C   6.0000    1    12.011   -2.268751    4.334642   -1.759130
   5 C   6.0000    1    12.011   -3.196676    6.123827    3.823141
   6 C   6.0000    1    12.011   -4.885794    9.553147   -0.692467
   7 H   1.0000    1     1.008   -5.601461    9.607341   -2.614510
   8 H   1.0000    1     1.008   -3.119987   10.599218   -0.654582
   9 H   1.0000    1     1.008   -6.223546   10.563194    0.489494
  10 H   1.0000    1     1.008   -2.941713    4.204316    4.501202
  11 H   1.0000    1     1.008   -4.496554    7.059936    5.104142
  12 H   1.0000    1     1.008   -1.388403    7.083780    3.972863
  13 H   1.0000    1     1.008   -2.176784    2.373158   -1.124338
  14 C   6.0000    1    12.011    0.396442    5.393099   -1.946881
  15 H   1.0000    1     1.008   -3.114956    4.289114   -3.640805
  16 H   1.0000    1     1.008    1.289695    5.404741   -0.085825
  17 H   1.0000    1     1.008    0.341196    7.342461   -2.624000
  18 C   6.0000    1    12.011    2.025793    3.819332   -3.757339
  19 H   1.0000    1     1.008    2.136025    1.860633   -3.101585
  20 C   6.0000    1    12.011    4.550547    4.811032   -3.930194
  21 H   1.0000    1     1.008    1.193199    3.817345   -5.650912
  22 N   7.0000    1    14.007    6.543776    5.635617   -4.031724

      -----------------------------------------------------------      
     |                   =====================                   |     
     |                           x T B                           |     
     |                   =====================                   |     
     |                         S. Grimme                         |     
     |          Mulliken Center for Theoretical Chemistry        |     
     |                    University of Bonn                     |     
      -----------------------------------------------------------      

   * xtb version 6.7.1 (edcfbbe) compiled by 'albert@albert-system' on 2024-07-22

   xtb is free software: you can redistribute it and/or modify it under
   the terms of the GNU Lesser General Public License as published by
   the Free Software Foundation, either version 3 of the License, or
   (at your option) any later version.
   
   xtb is distributed in the hope that it will be useful,
   but WITHOUT ANY WARRANTY; without even the implied warranty of
   MERCHANTABILITY or FITNESS FOR A PARTICULAR PURPOSE.  See the
   GNU Lesser General Public License for more details.
   
   Cite this work as:
   * C. Bannwarth, E. Caldeweyher, S. Ehlert, A. Hansen, P. Pracht,
     J. Seibert, S. Spicher, S. Grimme, WIREs Comput. Mol. Sci., 2020, 11,
     e01493. DOI: 10.1002/wcms.1493
   
   for GFN2-xTB:
   * C. Bannwarth, S. Ehlert and S. Grimme., J. Chem. Theory Comput., 2019,
     15, 1652-1671. DOI: 10.1021/acs.jctc.8b01176
   for GFN1-xTB:
[...]
   
   for DIPRO refer to:
   * J. Kohn, N. Gildemeister, S. Grimme, D. Fazzi, A. Hansen,
     J. Chem. Phys., 2023, just accepted.
   
   for PTB refer to:
   * S. Grimme, M. Mueller, A. Hansen, J. Chem. Phys., 2023, 158, 124111.
     DOI: 10.1063/5.0137838
   
   with help from (in alphabetical order)
   P. Atkinson, C. Bannwarth, F. Bohle, G. Brandenburg, E. Caldeweyher
   M. Checinski, S. Dohm, S. Ehlert, S. Ehrlich, I. Gerasimov, C. Hölzer
   A. Katbashev, J. Kohn, J. Koopman, C. Lavigne, S. Lehtola, F. März, M. Müller,
   F. Musil, H. Neugebauer, J. Pisarek, C. Plett, P. Pracht, F. Pultar,
   J. Seibert, P. Shushkov, S. Spicher, M. Stahn, M. Steiner, T. Strunk,
   J. Stückrath, T. Rose, and J. Unsleber
   
 * started run on 2024/09/18 at 22:04:01.970     
   ID    Z sym.   atoms
    1    6 C      1, 2, 5-7, 15, 19, 21
    2    1 H      3, 8-14, 16-18, 20, 22
    3   14 Si     4
    4    7 N      23

           -------------------------------------------------
          |                Calculation Setup                |
           -------------------------------------------------

          program call               : /Orca/otool_xtb /OrcaJobs/Jobs/CPDMSA_goat/CPDMSA_goat_XTB.xyz --grad -c 0 -u 0 -P 8 --namespace /OrcaJobs/Jobs/CPDMSA_goat/CPDMSA_goat --input /OrcaJobs/Jobs/CPDMSA_goat/CPDMSA_goat_XTB.input.tmp --acc 0.200000
          hostname                   : 32f47f2a0228
          calculation namespace      : /OrcaJobs/Jobs/CPDMSA_goat/CPDMSA_goat
          coordinate file            : /OrcaJobs/Jobs/CPDMSA_goat/CPDMSA_goat_XTB.xyz
          omp threads                :                     8


           -------------------------------------------------
          |                 G F N 2 - x T B                 |
           -------------------------------------------------

        Reference                      10.1021/acs.jctc.8b01176
      * Hamiltonian:
        H0-scaling (s, p, d)           1.850000    2.230000    2.230000
        zeta-weighting                 0.500000
      * Dispersion:
        s8                             2.700000
        a1                             0.520000
        a2                             5.000000
        s9                             5.000000
      * Repulsion:
        kExp                           1.500000    1.000000
        rExp                           1.000000
      * Coulomb:
        alpha                          2.000000
        third order                    shell-resolved
        anisotropic                    true
        a3                             3.000000
        a5                             4.000000
        cn-shift                       1.200000
        cn-exp                         4.000000
        max-rad                        5.000000

q/qsh data taken from xtbrestart
CAMM data taken from xtbrestart

          ...................................................
          :                      SETUP                      :
          :.................................................:
          :  # basis functions                  59          :
          :  # atomic orbitals                  58          :
          :  # shells                           34          :
          :  # electrons                        54          :
          :  max. iterations                   250          :
          :  Hamiltonian                  GFN2-xTB          :
          :  restarted?                       true          :
          :  GBSA solvation                  false          :
          :  PC potential                    false          :
          :  electronic temp.          300.0000000     K    :
          :  accuracy                    0.2000000          :
          :  -> integral cutoff          0.3198970E+02      :
          :  -> integral neglect         0.2000000E-08      :
          :  -> SCF convergence          0.2000000E-06 Eh   :
          :  -> wf. convergence          0.2000000E-04 e    :
          :  Broyden damping             0.4000000          :
          :  net charge                          0          :
          :  unpaired electrons                  0          :
          ...................................................

 iter      E             dE          RMSdq      gap      omega  full diag
   1    -28.8174031 -0.288174E+02  0.429E-03    5.14       0.0  T
   2    -28.8174031 -0.197544E-08  0.256E-03    5.14       8.1  T
   3    -28.8174031  0.123945E-07  0.826E-04    5.14      25.2  T
   4    -28.8174031 -0.137009E-07  0.163E-04    5.14     128.3  T
   5    -28.8174031 -0.187711E-09  0.930E-05    5.14     224.3  T

   *** convergence criteria satisfied after 5 iterations ***

         #    Occupation            Energy/Eh            Energy/eV
      -------------------------------------------------------------
         1        2.0000           -0.7439564             -20.2441
       ...           ...                  ...                  ...
        21        2.0000           -0.4401186             -11.9762
        22        2.0000           -0.4273500             -11.6288
        23        2.0000           -0.4269224             -11.6172
        24        2.0000           -0.4237197             -11.5300
        25        2.0000           -0.4182133             -11.3802
        26        2.0000           -0.4031071             -10.9691
        27        2.0000           -0.3962484             -10.7825 (HOMO)
        28                         -0.2072527              -5.6396 (LUMO)
        29                         -0.2049445              -5.5768
        30                         -0.1986514              -5.4056
        31                         -0.1970964              -5.3633
        32                         -0.1498599              -4.0779
       ...                                ...                  ...
        58                          1.3548248              36.8667
      -------------------------------------------------------------
                  HL-Gap            0.1889957 Eh            5.1428 eV
             Fermi-level           -0.3017505 Eh           -8.2110 eV

 SCC (total)                   0 d,  0 h,  0 min,  0.030 sec
 SCC setup                      ...        0 min,  0.000 sec (  1.023%)
 Dispersion                     ...        0 min,  0.000 sec (  0.640%)
 classical contributions        ...        0 min,  0.000 sec (  0.077%)
 integral evaluation            ...        0 min,  0.020 sec ( 64.819%)
 iterations                     ...        0 min,  0.007 sec ( 23.965%)
 molecular gradient             ...        0 min,  0.003 sec (  8.471%)
 printout                       ...        0 min,  0.000 sec (  0.874%)

         :::::::::::::::::::::::::::::::::::::::::::::::::::::
         ::                     SUMMARY                     ::
         :::::::::::::::::::::::::::::::::::::::::::::::::::::
         :: total energy             -28.277718605700 Eh    ::
         :: gradient norm              0.000173618644 Eh/a0 ::
         :: HOMO-LUMO gap              5.142834749367 eV    ::
         ::.................................................::
         :: SCC energy               -28.817322326664 Eh    ::
         :: -> isotropic ES            0.030304387357 Eh    ::
         :: -> anisotropic ES          0.004603904858 Eh    ::
         :: -> anisotropic XC          0.034857330889 Eh    ::
         :: -> dispersion             -0.016830615974 Eh    ::
         :: repulsion energy           0.539603720965 Eh    ::
         :: add. restraining           0.000000000000 Eh    ::
         :: total charge              -0.000000000000 e     ::
         :::::::::::::::::::::::::::::::::::::::::::::::::::::


Property printout bound to 'properties.out'

           -------------------------------------------------
          | TOTAL ENERGY              -28.277718605700 Eh   |
          | GRADIENT NORM               0.000173618644 Eh/α |
          | HOMO-LUMO GAP               5.142834749367 eV   |
           -------------------------------------------------

------------------------------------------------------------------------
 * finished run on 2024/09/18 at 22:04:02.018     
------------------------------------------------------------------------
 total:
 * wall-time:     0 d,  0 h,  0 min,  0.047 sec
 *  cpu-time:     0 d,  0 h,  0 min,  0.314 sec
 * ratio c/w:     6.628 speedup
 SCF:
 * wall-time:     0 d,  0 h,  0 min,  0.030 sec
 *  cpu-time:     0 d,  0 h,  0 min,  0.217 sec
 * ratio c/w:     7.127 speedup


-------------------------   --------------------
FINAL SINGLE POINT ENERGY       -28.277718605700
-------------------------   --------------------


-------------
DIPOLE MOMENT
-------------
                                X             Y             Z
Total Dipole Moment    :     -1.43400      -0.39000       0.23900
                        -----------------------------------------
Magnitude (a.u.)       :      1.50518
Magnitude (Debye)      :      3.82587

                                *** OPTIMIZATION RUN DONE ***

		     ------------------------------
			                   _   
			                  | |  
			  __ _  ___   __ _| |_ 
			 / _` |/ _ \ / _` | __|
			| (_| | (_) | (_| | |_ 
			 \__, |\___/ \__,_|\__|
			 __/ |                
			|___/                 

		      A Global Optimizer Algorithm
		     ------------------------------

Global parameters
-----------------
  GOAT version                               ... default
  Minimum global steps                       ... 3
  Number of base workers                     ... 4
  Split workers by                           ... 2
  Final number of workers                    ... 8
  Number of available CPUs                   ... 8
  Parameter list (worker : temperature)      ...  0 : 2903.97,  1 : 1451.98, 
                                                  2 :  725.99,  3 :  363.00, 
                                                  4 : 2903.97,  5 : 1451.98, 
                                                  6 :  725.99,  7 :  363.00 
  GradComp (mean : sigma)                    ... 1.00 : 0.50
  Number of fragments                        ... 1
  Number of atoms                            ... 23
  Flexibility parameter                      ... 0.88
  Optimizations per global step              ... 384
  Optimizations per worker                   ... 48

Filtering criteria
------------------
  RMSD                                       ... 0.125 Angs (atom. pos.)
  EnDiff                                     ... 0.100 kcal/mol
  RotConst                                   ... 1.00-2.50 %
  Maximum Conf. Energy                       ... 6.000 kcal/mol

Thermodynamics
--------------
  Ensemble temperature                       ... 298.15 K
  Degeneracy of conformers                   ... 1
  *No rotamers will be included in Gconf

------------------------------------------------------------------------------
   Iter  MinTemp     MaxEn       GradComp    NOpt   NProcs    Output
------------------------------------------------------------------------------
List of participating nodes    ...  /OrcaJobs/Jobs/CPDMSA_goat/CPDMSA_goat.goat.0.hostnames

   3      363.00     69.00    1.00 : 0.50      48        1    /OrcaJobs/Jobs/CPDMSA_goat/CPDMSA_goat.goat.0.3.out
   6      725.99     69.00    1.00 : 0.50      48        1    /OrcaJobs/Jobs/CPDMSA_goat/CPDMSA_goat.goat.0.6.out
   2      725.99     69.00    1.00 : 0.50      48        1    /OrcaJobs/Jobs/CPDMSA_goat/CPDMSA_goat.goat.0.2.out
   1     1451.98     69.00    1.00 : 0.50      48        1    /OrcaJobs/Jobs/CPDMSA_goat/CPDMSA_goat.goat.0.1.out
   4     2903.97     69.00    1.00 : 0.50      48        1    /OrcaJobs/Jobs/CPDMSA_goat/CPDMSA_goat.goat.0.4.out
   5     1451.98     69.00    1.00 : 0.50      48        1    /OrcaJobs/Jobs/CPDMSA_goat/CPDMSA_goat.goat.0.5.out
   7      363.00     69.00    1.00 : 0.50      48        1    /OrcaJobs/Jobs/CPDMSA_goat/CPDMSA_goat.goat.0.7.out
   0     2903.97     69.00    1.00 : 0.50      48        1    /OrcaJobs/Jobs/CPDMSA_goat/CPDMSA_goat.goat.0.0.out

			     GOAT Global Iter 1
		Iter    Min En       Sconf       Gconf   
		        Hartree      cal/(molK)  kcal/mol
		=========================================

		   1    -28.279366   4.412       -0.876

List of participating nodes    ...  /OrcaJobs/Jobs/CPDMSA_goat/CPDMSA_goat.goat.1.hostnames

   5     1451.98     69.00    1.00 : 0.50      48        1    /OrcaJobs/Jobs/CPDMSA_goat/CPDMSA_goat.goat.1.5.out
   3      363.00     69.00    1.00 : 0.50      48        1    /OrcaJobs/Jobs/CPDMSA_goat/CPDMSA_goat.goat.1.3.out
   1     1451.98     69.00    1.00 : 0.50      48        1    /OrcaJobs/Jobs/CPDMSA_goat/CPDMSA_goat.goat.1.1.out
   2      725.99     69.00    1.00 : 0.50      48        1    /OrcaJobs/Jobs/CPDMSA_goat/CPDMSA_goat.goat.1.2.out
   4     2903.97     69.00    1.00 : 0.50      48        1    /OrcaJobs/Jobs/CPDMSA_goat/CPDMSA_goat.goat.1.4.out
   0     2903.97     69.00    1.00 : 0.50      48        1    /OrcaJobs/Jobs/CPDMSA_goat/CPDMSA_goat.goat.1.0.out
   6      725.99     69.00    1.00 : 0.50      48        1    /OrcaJobs/Jobs/CPDMSA_goat/CPDMSA_goat.goat.1.6.out
   7      363.00     69.00    1.00 : 0.50      48        1    /OrcaJobs/Jobs/CPDMSA_goat/CPDMSA_goat.goat.1.7.out

			     GOAT Global Iter 2
		Iter    Min En       Sconf       Gconf   
		        Hartree      cal/(molK)  kcal/mol
		=========================================

		   1    -28.279366   4.412       -0.876
		   2    -28.279367   4.808       -0.994

List of participating nodes    ...  /OrcaJobs/Jobs/CPDMSA_goat/CPDMSA_goat.goat.2.hostnames

   5     1451.98     69.00    1.00 : 0.50      48        1    /OrcaJobs/Jobs/CPDMSA_goat/CPDMSA_goat.goat.2.5.out
   3      363.00     69.00    1.00 : 0.50      48        1    /OrcaJobs/Jobs/CPDMSA_goat/CPDMSA_goat.goat.2.3.out
   4     2903.97     69.00    1.00 : 0.50      48        1    /OrcaJobs/Jobs/CPDMSA_goat/CPDMSA_goat.goat.2.4.out
   2      725.99     69.00    1.00 : 0.50      48        1    /OrcaJobs/Jobs/CPDMSA_goat/CPDMSA_goat.goat.2.2.out
   1     1451.98     69.00    1.00 : 0.50      48        1    /OrcaJobs/Jobs/CPDMSA_goat/CPDMSA_goat.goat.2.1.out
   0     2903.97     69.00    1.00 : 0.50      48        1    /OrcaJobs/Jobs/CPDMSA_goat/CPDMSA_goat.goat.2.0.out
   7      363.00     69.00    1.00 : 0.50      48        1    /OrcaJobs/Jobs/CPDMSA_goat/CPDMSA_goat.goat.2.7.out
   6      725.99     69.00    1.00 : 0.50      48        1    /OrcaJobs/Jobs/CPDMSA_goat/CPDMSA_goat.goat.2.6.out

			     GOAT Global Iter 3
		Iter    Min En       Sconf       Gconf   
		        Hartree      cal/(molK)  kcal/mol
		=========================================

		   1    -28.279366   4.412       -0.876
		   2    -28.279367   4.808       -0.994
		   3    -28.279367   4.925       -1.010

		Global minimum found!
		Writing structure to /OrcaJobs/Jobs/CPDMSA_goat/CPDMSA_goat.globalminimum.xyz

		# Final ensemble info #
		Conformer     Energy     Degen.   % total   % cumul.  
		              (kcal/mol)
		------------------------------------------------------
		        0     0.000	     1      18.19      18.19
		        1     0.167	     1      13.73      31.92
		        2     0.188	     1      13.24      45.16
		        3     0.214	     1      12.67      57.83
		        4     0.486	     1       8.01      65.84
		        5     0.640	     1       6.17      72.01
		        6     0.777	     1       4.90      76.92
		        7     0.806	     1       4.67      81.58
		        8     1.034	     1       3.18      84.76
		        9     1.130	     1       2.70      87.46
		       10     1.151	     1       2.61      90.07
		       11     1.167	     1       2.54      92.60
		       12     1.207	     1       2.37      94.98
		       13     1.433	     1       1.62      96.60
		       14     1.494	     1       1.46      98.06
		       15     1.548	     1       1.33      99.39
		       16     2.013	     1       0.61     100.00

		Conformers below 3 kcal/mol: 17
		Lowest energy conformer    : -28.279367 Eh
		Sconf at 298.15 K          :  4.93 cal/(molK)
		Gconf at 298.15 K          : -1.01 kcal/mol

		Writing final ensemble to /OrcaJobs/Jobs/CPDMSA_goat/CPDMSA_goat.finalensemble.xyz

--------------------------------
SUGGESTED CITATIONS FOR THIS RUN
--------------------------------

Below you find a list of papers that are relevant to this ORCA run
We neither can nor want to force you to cite these papers, but we appreciate if you do
You receive ORCA, which is the product of decades of hard work by many enthusiastic individuals, for free
The only thing we kindly ask in return is that you cite our papers,
We deeply appreciate it, if you show your appreciation for ORCA by not just citing the generic ORCA reference.

Please note that relegating all ORCA citations to the supporting information does *not* help us.
SI sections are not indexed - citations you put there will not count into any citation statistics
But we need these citations in order to attract the funding resources that allow us to do what we are doing

Therefore, if you are a happy ORCA user, please consider citing a few of the papers listed below in the main body of your paper

In addition to the list printed below, the program has created the file /OrcaJobs/Jobs/CPDMSA_goat/CPDMSA_goat.bibtex that contains the list in bibtex format
You can import this file easily into all common literature databanks and citation aid programs


List of essential papers. We consider these as the minimum necessary citations

  1. Bannwarth,C.; Ehlert,S.; Grimme,S.
     GFN2-xTB—An Accurate and Broadly Parametrized Self-Consistent Tight-Binding Quantum Chemical Method with Multipole Electrostatics and Density-Dependent Dispersion Contributions
     J. Chem. Theory Comput., 2019 15(3)1652-1671
     doi.org/10.1021/acs.jctc.8b01176
  2. Neese,F.
     Software update: the ORCA program system, version 5.0
     WIRES Comput. Molec. Sci., 2022 12(1)e1606
     doi.org/10.1002/wcms.1606

List of papers to cite with high priority. The work reported in these papers was absolutely
necessary for this run to complete.
Our perspective: the developers of density functionals and basis sets usually get cited in chemistry papers
Good! But without the algorithms to do something with them, the functionals or basis sets would not do anything.
Hence, in our opinion, the algorithm design and method developments papers are equally worthy of getting cited

  1. Bannwarth,C.; Caldeweyher,E.; Ehlert,S.; Hansen,A.; Pracht,P.; Seibert,J.; Spicher,S.; Grimme,S.
     Extended tight-binding quantum chemistry methods
     WIRES Comput. Molec. Sci., 2020 11(2)e1493
     doi.org/10.1002/wcms.1493

List of suggested additional citations. These are papers that are important in the 'surrounding' of 
of this run, or papers that preceded the highly important papers. If you like your results we are grateful for a citation.

  1. Neese,F.
     The ORCA program system
     WIRES Comput. Molec. Sci., 2012 2(1)73-78
     doi.org/10.1002/wcms.81
  2. Neese,F.
     Software update: the ORCA program system, version 4.0
     WIRES Comput. Molec. Sci., 2018 8(1)1-6
     doi.org/10.1002/wcms.1327
  3. Neese,F.; Wennmohs,F.; Becker,U.; Riplinger,C.
     The ORCA quantum chemistry program package
     J. Chem. Phys., 2020 152 Art. No. L224108
     doi.org/10.1063/5.0004608

List of optional additional citations

  1. Neese,F.
     Approximate second-order SCF convergence for spin unrestricted wavefunctions
     Chem. Phys. Lett., 2000 325(1-3)93-98
     doi.org/10.1016/s0009-2614(00)00662-x

Timings for individual modules:

Sum of individual times          ...        0.694 sec (=   0.012 min)
Geometry relaxation              ...        0.085 sec (=   0.001 min)  12.2 %
XTB module                       ...        0.609 sec (=   0.010 min)  87.8 %
                             ****ORCA TERMINATED NORMALLY****
TOTAL RUN TIME: 0 days 0 hours 12 minutes 27 seconds 797 msec
